+ 0.1 0 1 tcp 40 ------- 0 0.0 1.0 0 0
- 0.1 0 1 tcp 40 ------- 0 0.0 1.0 0 0
r 0.10832 0 1 tcp 40 ------- 0 0.0 1.0 0 0
+ 0.10832 1 0 ack 40 ------- 0 1.0 0.0 0 1
- 0.10832 1 0 ack 40 ------- 0 1.0 0.0 0 1
r 0.11664 1 0 ack 40 ------- 0 1.0 0.0 0 1
+ 0.11664 0 1 tcp 1040 ------- 0 0.0 1.0 1 2
- 0.11664 0 1 tcp 1040 ------- 0 0.0 1.0 1 2
+ 0.11664 0 1 tcp 1040 ------- 0 0.0 1.0 2 3
- 0.12496 0 1 tcp 1040 ------- 0 0.0 1.0 2 3
r 0.13296 0 1 tcp 1040 ------- 0 0.0 1.0 1 2
+ 0.13296 1 0 ack 40 ------- 0 1.0 0.0 1 4
- 0.13296 1 0 ack 40 ------- 0 1.0 0.0 1 4
r 0.14128 0 1 tcp 1040 ------- 0 0.0 1.0 2 3
+ 0.14128 1 0 ack 40 ------- 0 1.0 0.0 2 5
- 0.14128 1 0 ack 40 ------- 0 1.0 0.0 2 5
r 0.14128 1 0 ack 40 ------- 0 1.0 0.0 1 4
+ 0.14128 0 1 tcp 1040 ------- 0 0.0 1.0 3 6
- 0.14128 0 1 tcp 1040 ------- 0 0.0 1.0 3 6
+ 0.14128 0 1 tcp 1040 ------- 0 0.0 1.0 4 7
r 0.1496 1 0 ack 40 ------- 0 1.0 0.0 2 5
+ 0.1496 0 1 tcp 1040 ------- 0 0.0 1.0 5 8
+ 0.1496 0 1 tcp 1040 ------- 0 0.0 1.0 6 9
- 0.1496 0 1 tcp 1040 ------- 0 0.0 1.0 4 7
r 0.1576 0 1 tcp 1040 ------- 0 0.0 1.0 3 6
+ 0.1576 1 0 ack 40 ------- 0 1.0 0.0 3 10
- 0.1576 1 0 ack 40 ------- 0 1.0 0.0 3 10
- 0.15792 0 1 tcp 1040 ------- 0 0.0 1.0 5 8
r 0.16592 0 1 tcp 1040 ------- 0 0.0 1.0 4 7
+ 0.16592 1 0 ack 40 ------- 0 1.0 0.0 4 11
- 0.16592 1 0 ack 40 ------- 0 1.0 0.0 4 11
r 0.16592 1 0 ack 40 ------- 0 1.0 0.0 3 10
+ 0.16592 0 1 tcp 1040 ------- 0 0.0 1.0 7 12
+ 0.16592 0 1 tcp 1040 ------- 0 0.0 1.0 8 13
- 0.16624 0 1 tcp 1040 ------- 0 0.0 1.0 6 9
r 0.17424 0 1 tcp 1040 ------- 0 0.0 1.0 5 8
+ 0.17424 1 0 ack 40 ------- 0 1.0 0.0 5 14
- 0.17424 1 0 ack 40 ------- 0 1.0 0.0 5 14
r 0.17424 1 0 ack 40 ------- 0 1.0 0.0 4 11
+ 0.17424 0 1 tcp 1040 ------- 0 0.0 1.0 9 15
+ 0.17424 0 1 tcp 1040 ------- 0 0.0 1.0 10 16
- 0.17456 0 1 tcp 1040 ------- 0 0.0 1.0 7 12
r 0.18256 0 1 tcp 1040 ------- 0 0.0 1.0 6 9
+ 0.18256 1 0 ack 40 ------- 0 1.0 0.0 6 17
- 0.18256 1 0 ack 40 ------- 0 1.0 0.0 6 17
r 0.18256 1 0 ack 40 ------- 0 1.0 0.0 5 14
+ 0.18256 0 1 tcp 1040 ------- 0 0.0 1.0 11 18
+ 0.18256 0 1 tcp 1040 ------- 0 0.0 1.0 12 19
- 0.18288 0 1 tcp 1040 ------- 0 0.0 1.0 8 13
r 0.19088 0 1 tcp 1040 ------- 0 0.0 1.0 7 12
+ 0.19088 1 0 ack 40 ------- 0 1.0 0.0 7 20
- 0.19088 1 0 ack 40 ------- 0 1.0 0.0 7 20
r 0.19088 1 0 ack 40 ------- 0 1.0 0.0 6 17
+ 0.19088 0 1 tcp 1040 ------- 0 0.0 1.0 13 21
+ 0.19088 0 1 tcp 1040 ------- 0 0.0 1.0 14 22
- 0.1912 0 1 tcp 1040 ------- 0 0.0 1.0 9 15
r 0.1992 0 1 tcp 1040 ------- 0 0.0 1.0 8 13
+ 0.1992 1 0 ack 40 ------- 0 1.0 0.0 8 23
- 0.1992 1 0 ack 40 ------- 0 1.0 0.0 8 23
r 0.1992 1 0 ack 40 ------- 0 1.0 0.0 7 20
+ 0.1992 0 1 tcp 1040 ------- 0 0.0 1.0 15 24
+ 0.1992 0 1 tcp 1040 ------- 0 0.0 1.0 16 25
- 0.19952 0 1 tcp 1040 ------- 0 0.0 1.0 10 16
r 0.20752 0 1 tcp 1040 ------- 0 0.0 1.0 9 15
+ 0.20752 1 0 ack 40 ------- 0 1.0 0.0 9 26
- 0.20752 1 0 ack 40 ------- 0 1.0 0.0 9 26
r 0.20752 1 0 ack 40 ------- 0 1.0 0.0 8 23
+ 0.20752 0 1 tcp 1040 ------- 0 0.0 1.0 17 27
+ 0.20752 0 1 tcp 1040 ------- 0 0.0 1.0 18 28
- 0.20784 0 1 tcp 1040 ------- 0 0.0 1.0 11 18
r 0.21584 0 1 tcp 1040 ------- 0 0.0 1.0 10 16
+ 0.21584 1 0 ack 40 ------- 0 1.0 0.0 10 29
- 0.21584 1 0 ack 40 ------- 0 1.0 0.0 10 29
r 0.21584 1 0 ack 40 ------- 0 1.0 0.0 9 26
+ 0.21584 0 1 tcp 1040 ------- 0 0.0 1.0 19 30
+ 0.21584 0 1 tcp 1040 ------- 0 0.0 1.0 20 31
- 0.21616 0 1 tcp 1040 ------- 0 0.0 1.0 12 19
r 0.22416 0 1 tcp 1040 ------- 0 0.0 1.0 11 18
+ 0.22416 1 0 ack 40 ------- 0 1.0 0.0 11 32
- 0.22416 1 0 ack 40 ------- 0 1.0 0.0 11 32
r 0.22416 1 0 ack 40 ------- 0 1.0 0.0 10 29
+ 0.22416 0 1 tcp 1040 ------- 0 0.0 1.0 21 33
+ 0.22416 0 1 tcp 1040 ------- 0 0.0 1.0 22 34
- 0.22448 0 1 tcp 1040 ------- 0 0.0 1.0 13 21
r 0.23248 0 1 tcp 1040 ------- 0 0.0 1.0 12 19
+ 0.23248 1 0 ack 40 ------- 0 1.0 0.0 12 35
- 0.23248 1 0 ack 40 ------- 0 1.0 0.0 12 35
r 0.23248 1 0 ack 40 ------- 0 1.0 0.0 11 32
+ 0.23248 0 1 tcp 1040 ------- 0 0.0 1.0 23 36
+ 0.23248 0 1 tcp 1040 ------- 0 0.0 1.0 24 37
- 0.2328 0 1 tcp 1040 ------- 0 0.0 1.0 14 22
r 0.2408 0 1 tcp 1040 ------- 0 0.0 1.0 13 21
+ 0.2408 1 0 ack 40 ------- 0 1.0 0.0 13 38
- 0.2408 1 0 ack 40 ------- 0 1.0 0.0 13 38
r 0.2408 1 0 ack 40 ------- 0 1.0 0.0 12 35
+ 0.2408 0 1 tcp 1040 ------- 0 0.0 1.0 25 39
+ 0.2408 0 1 tcp 1040 ------- 0 0.0 1.0 26 40
- 0.24112 0 1 tcp 1040 ------- 0 0.0 1.0 15 24
r 0.24912 0 1 tcp 1040 ------- 0 0.0 1.0 14 22
+ 0.24912 1 0 ack 40 ------- 0 1.0 0.0 14 41
- 0.24912 1 0 ack 40 ------- 0 1.0 0.0 14 41
r 0.24912 1 0 ack 40 ------- 0 1.0 0.0 13 38
+ 0.24912 0 1 tcp 1040 ------- 0 0.0 1.0 27 42
+ 0.24912 0 1 tcp 1040 ------- 0 0.0 1.0 28 43
- 0.24944 0 1 tcp 1040 ------- 0 0.0 1.0 16 25
r 0.25744 0 1 tcp 1040 ------- 0 0.0 1.0 15 24
+ 0.25744 1 0 ack 40 ------- 0 1.0 0.0 15 44
- 0.25744 1 0 ack 40 ------- 0 1.0 0.0 15 44
r 0.25744 1 0 ack 40 ------- 0 1.0 0.0 14 41
+ 0.25744 0 1 tcp 1040 ------- 0 0.0 1.0 29 45
+ 0.25744 0 1 tcp 1040 ------- 0 0.0 1.0 30 46
- 0.25776 0 1 tcp 1040 ------- 0 0.0 1.0 17 27
r 0.26576 0 1 tcp 1040 ------- 0 0.0 1.0 16 25
+ 0.26576 1 0 ack 40 ------- 0 1.0 0.0 16 47
- 0.26576 1 0 ack 40 ------- 0 1.0 0.0 16 47
r 0.26576 1 0 ack 40 ------- 0 1.0 0.0 15 44
+ 0.26576 0 1 tcp 1040 ------- 0 0.0 1.0 31 48
+ 0.26576 0 1 tcp 1040 ------- 0 0.0 1.0 32 49
- 0.26608 0 1 tcp 1040 ------- 0 0.0 1.0 18 28
r 0.27408 1 0 ack 40 ------- 0 1.0 0.0 16 47
+ 0.27408 0 1 tcp 1040 ------- 0 0.0 1.0 33 50
+ 0.27408 0 1 tcp 1040 ------- 0 0.0 1.0 34 51
r 0.27408 0 1 tcp 1040 ------- 0 0.0 1.0 17 27
+ 0.27408 1 0 ack 40 ------- 0 1.0 0.0 17 52
- 0.27408 1 0 ack 40 ------- 0 1.0 0.0 17 52
- 0.2744 0 1 tcp 1040 ------- 0 0.0 1.0 19 30
r 0.2824 0 1 tcp 1040 ------- 0 0.0 1.0 18 28
+ 0.2824 1 0 ack 40 ------- 0 1.0 0.0 18 53
- 0.2824 1 0 ack 40 ------- 0 1.0 0.0 18 53
r 0.2824 1 0 ack 40 ------- 0 1.0 0.0 17 52
+ 0.2824 0 1 tcp 1040 ------- 0 0.0 1.0 35 54
+ 0.2824 0 1 tcp 1040 ------- 0 0.0 1.0 36 55
- 0.28272 0 1 tcp 1040 ------- 0 0.0 1.0 20 31
r 0.29072 0 1 tcp 1040 ------- 0 0.0 1.0 19 30
+ 0.29072 1 0 ack 40 ------- 0 1.0 0.0 19 56
- 0.29072 1 0 ack 40 ------- 0 1.0 0.0 19 56
r 0.29072 1 0 ack 40 ------- 0 1.0 0.0 18 53
+ 0.29072 0 1 tcp 1040 ------- 0 0.0 1.0 37 57
+ 0.29072 0 1 tcp 1040 ------- 0 0.0 1.0 38 58
- 0.29104 0 1 tcp 1040 ------- 0 0.0 1.0 21 33
r 0.29904 0 1 tcp 1040 ------- 0 0.0 1.0 20 31
+ 0.29904 1 0 ack 40 ------- 0 1.0 0.0 20 59
- 0.29904 1 0 ack 40 ------- 0 1.0 0.0 20 59
r 0.29904 1 0 ack 40 ------- 0 1.0 0.0 19 56
+ 0.29904 0 1 tcp 1040 ------- 0 0.0 1.0 39 60
- 0.29936 0 1 tcp 1040 ------- 0 0.0 1.0 22 34
r 0.30736 0 1 tcp 1040 ------- 0 0.0 1.0 21 33
+ 0.30736 1 0 ack 40 ------- 0 1.0 0.0 21 61
- 0.30736 1 0 ack 40 ------- 0 1.0 0.0 21 61
r 0.30736 1 0 ack 40 ------- 0 1.0 0.0 20 59
+ 0.30736 0 1 tcp 1040 ------- 0 0.0 1.0 40 62
- 0.30768 0 1 tcp 1040 ------- 0 0.0 1.0 23 36
r 0.31568 0 1 tcp 1040 ------- 0 0.0 1.0 22 34
+ 0.31568 1 0 ack 40 ------- 0 1.0 0.0 22 63
- 0.31568 1 0 ack 40 ------- 0 1.0 0.0 22 63
r 0.31568 1 0 ack 40 ------- 0 1.0 0.0 21 61
+ 0.31568 0 1 tcp 1040 ------- 0 0.0 1.0 41 64
- 0.316 0 1 tcp 1040 ------- 0 0.0 1.0 24 37
r 0.324 0 1 tcp 1040 ------- 0 0.0 1.0 23 36
+ 0.324 1 0 ack 40 ------- 0 1.0 0.0 23 65
- 0.324 1 0 ack 40 ------- 0 1.0 0.0 23 65
r 0.324 1 0 ack 40 ------- 0 1.0 0.0 22 63
+ 0.324 0 1 tcp 1040 ------- 0 0.0 1.0 42 66
- 0.32432 0 1 tcp 1040 ------- 0 0.0 1.0 25 39
r 0.33232 0 1 tcp 1040 ------- 0 0.0 1.0 24 37
+ 0.33232 1 0 ack 40 ------- 0 1.0 0.0 24 67
- 0.33232 1 0 ack 40 ------- 0 1.0 0.0 24 67
r 0.33232 1 0 ack 40 ------- 0 1.0 0.0 23 65
+ 0.33232 0 1 tcp 1040 ------- 0 0.0 1.0 43 68
- 0.33264 0 1 tcp 1040 ------- 0 0.0 1.0 26 40
r 0.34064 0 1 tcp 1040 ------- 0 0.0 1.0 25 39
+ 0.34064 1 0 ack 40 ------- 0 1.0 0.0 25 69
- 0.34064 1 0 ack 40 ------- 0 1.0 0.0 25 69
r 0.34064 1 0 ack 40 ------- 0 1.0 0.0 24 67
+ 0.34064 0 1 tcp 1040 ------- 0 0.0 1.0 44 70
- 0.34096 0 1 tcp 1040 ------- 0 0.0 1.0 27 42
r 0.34896 0 1 tcp 1040 ------- 0 0.0 1.0 26 40
+ 0.34896 1 0 ack 40 ------- 0 1.0 0.0 26 71
- 0.34896 1 0 ack 40 ------- 0 1.0 0.0 26 71
r 0.34896 1 0 ack 40 ------- 0 1.0 0.0 25 69
+ 0.34896 0 1 tcp 1040 ------- 0 0.0 1.0 45 72
- 0.34928 0 1 tcp 1040 ------- 0 0.0 1.0 28 43
r 0.35728 0 1 tcp 1040 ------- 0 0.0 1.0 27 42
+ 0.35728 1 0 ack 40 ------- 0 1.0 0.0 27 73
- 0.35728 1 0 ack 40 ------- 0 1.0 0.0 27 73
r 0.35728 1 0 ack 40 ------- 0 1.0 0.0 26 71
+ 0.35728 0 1 tcp 1040 ------- 0 0.0 1.0 46 74
- 0.3576 0 1 tcp 1040 ------- 0 0.0 1.0 29 45
r 0.3656 0 1 tcp 1040 ------- 0 0.0 1.0 28 43
+ 0.3656 1 0 ack 40 ------- 0 1.0 0.0 28 75
- 0.3656 1 0 ack 40 ------- 0 1.0 0.0 28 75
r 0.3656 1 0 ack 40 ------- 0 1.0 0.0 27 73
+ 0.3656 0 1 tcp 1040 ------- 0 0.0 1.0 47 76
- 0.36592 0 1 tcp 1040 ------- 0 0.0 1.0 30 46
r 0.37392 0 1 tcp 1040 ------- 0 0.0 1.0 29 45
+ 0.37392 1 0 ack 40 ------- 0 1.0 0.0 29 77
- 0.37392 1 0 ack 40 ------- 0 1.0 0.0 29 77
r 0.37392 1 0 ack 40 ------- 0 1.0 0.0 28 75
+ 0.37392 0 1 tcp 1040 ------- 0 0.0 1.0 48 78
- 0.37424 0 1 tcp 1040 ------- 0 0.0 1.0 31 48
r 0.38224 0 1 tcp 1040 ------- 0 0.0 1.0 30 46
+ 0.38224 1 0 ack 40 ------- 0 1.0 0.0 30 79
- 0.38224 1 0 ack 40 ------- 0 1.0 0.0 30 79
r 0.38224 1 0 ack 40 ------- 0 1.0 0.0 29 77
+ 0.38224 0 1 tcp 1040 ------- 0 0.0 1.0 49 80
- 0.38256 0 1 tcp 1040 ------- 0 0.0 1.0 32 49
r 0.39056 0 1 tcp 1040 ------- 0 0.0 1.0 31 48
+ 0.39056 1 0 ack 40 ------- 0 1.0 0.0 31 81
- 0.39056 1 0 ack 40 ------- 0 1.0 0.0 31 81
r 0.39056 1 0 ack 40 ------- 0 1.0 0.0 30 79
+ 0.39056 0 1 tcp 1040 ------- 0 0.0 1.0 50 82
- 0.39088 0 1 tcp 1040 ------- 0 0.0 1.0 33 50
r 0.39888 0 1 tcp 1040 ------- 0 0.0 1.0 32 49
+ 0.39888 1 0 ack 40 ------- 0 1.0 0.0 32 83
- 0.39888 1 0 ack 40 ------- 0 1.0 0.0 32 83
r 0.39888 1 0 ack 40 ------- 0 1.0 0.0 31 81
+ 0.39888 0 1 tcp 1040 ------- 0 0.0 1.0 51 84
- 0.3992 0 1 tcp 1040 ------- 0 0.0 1.0 34 51
r 0.4072 0 1 tcp 1040 ------- 0 0.0 1.0 33 50
+ 0.4072 1 0 ack 40 ------- 0 1.0 0.0 33 85
- 0.4072 1 0 ack 40 ------- 0 1.0 0.0 33 85
r 0.4072 1 0 ack 40 ------- 0 1.0 0.0 32 83
+ 0.4072 0 1 tcp 1040 ------- 0 0.0 1.0 52 86
- 0.40752 0 1 tcp 1040 ------- 0 0.0 1.0 35 54
r 0.41552 0 1 tcp 1040 ------- 0 0.0 1.0 34 51
+ 0.41552 1 0 ack 40 ------- 0 1.0 0.0 34 87
- 0.41552 1 0 ack 40 ------- 0 1.0 0.0 34 87
r 0.41552 1 0 ack 40 ------- 0 1.0 0.0 33 85
+ 0.41552 0 1 tcp 1040 ------- 0 0.0 1.0 53 88
- 0.41584 0 1 tcp 1040 ------- 0 0.0 1.0 36 55
r 0.42384 0 1 tcp 1040 ------- 0 0.0 1.0 35 54
+ 0.42384 1 0 ack 40 ------- 0 1.0 0.0 35 89
- 0.42384 1 0 ack 40 ------- 0 1.0 0.0 35 89
r 0.42384 1 0 ack 40 ------- 0 1.0 0.0 34 87
+ 0.42384 0 1 tcp 1040 ------- 0 0.0 1.0 54 90
- 0.42416 0 1 tcp 1040 ------- 0 0.0 1.0 37 57
r 0.43216 0 1 tcp 1040 ------- 0 0.0 1.0 36 55
+ 0.43216 1 0 ack 40 ------- 0 1.0 0.0 36 91
- 0.43216 1 0 ack 40 ------- 0 1.0 0.0 36 91
r 0.43216 1 0 ack 40 ------- 0 1.0 0.0 35 89
+ 0.43216 0 1 tcp 1040 ------- 0 0.0 1.0 55 92
- 0.43248 0 1 tcp 1040 ------- 0 0.0 1.0 38 58
r 0.44048 0 1 tcp 1040 ------- 0 0.0 1.0 37 57
+ 0.44048 1 0 ack 40 ------- 0 1.0 0.0 37 93
- 0.44048 1 0 ack 40 ------- 0 1.0 0.0 37 93
r 0.44048 1 0 ack 40 ------- 0 1.0 0.0 36 91
+ 0.44048 0 1 tcp 1040 ------- 0 0.0 1.0 56 94
- 0.4408 0 1 tcp 1040 ------- 0 0.0 1.0 39 60
r 0.4488 0 1 tcp 1040 ------- 0 0.0 1.0 38 58
+ 0.4488 1 0 ack 40 ------- 0 1.0 0.0 38 95
- 0.4488 1 0 ack 40 ------- 0 1.0 0.0 38 95
r 0.4488 1 0 ack 40 ------- 0 1.0 0.0 37 93
+ 0.4488 0 1 tcp 1040 ------- 0 0.0 1.0 57 96
- 0.44912 0 1 tcp 1040 ------- 0 0.0 1.0 40 62
r 0.45712 0 1 tcp 1040 ------- 0 0.0 1.0 39 60
+ 0.45712 1 0 ack 40 ------- 0 1.0 0.0 39 97
- 0.45712 1 0 ack 40 ------- 0 1.0 0.0 39 97
r 0.45712 1 0 ack 40 ------- 0 1.0 0.0 38 95
+ 0.45712 0 1 tcp 1040 ------- 0 0.0 1.0 58 98
- 0.45744 0 1 tcp 1040 ------- 0 0.0 1.0 41 64
r 0.46544 0 1 tcp 1040 ------- 0 0.0 1.0 40 62
+ 0.46544 1 0 ack 40 ------- 0 1.0 0.0 40 99
- 0.46544 1 0 ack 40 ------- 0 1.0 0.0 40 99
r 0.46544 1 0 ack 40 ------- 0 1.0 0.0 39 97
+ 0.46544 0 1 tcp 1040 ------- 0 0.0 1.0 59 100
- 0.46576 0 1 tcp 1040 ------- 0 0.0 1.0 42 66
r 0.47376 0 1 tcp 1040 ------- 0 0.0 1.0 41 64
+ 0.47376 1 0 ack 40 ------- 0 1.0 0.0 41 101
- 0.47376 1 0 ack 40 ------- 0 1.0 0.0 41 101
r 0.47376 1 0 ack 40 ------- 0 1.0 0.0 40 99
+ 0.47376 0 1 tcp 1040 ------- 0 0.0 1.0 60 102
- 0.47408 0 1 tcp 1040 ------- 0 0.0 1.0 43 68
r 0.48208 0 1 tcp 1040 ------- 0 0.0 1.0 42 66
+ 0.48208 1 0 ack 40 ------- 0 1.0 0.0 42 103
- 0.48208 1 0 ack 40 ------- 0 1.0 0.0 42 103
r 0.48208 1 0 ack 40 ------- 0 1.0 0.0 41 101
+ 0.48208 0 1 tcp 1040 ------- 0 0.0 1.0 61 104
- 0.4824 0 1 tcp 1040 ------- 0 0.0 1.0 44 70
r 0.4904 0 1 tcp 1040 ------- 0 0.0 1.0 43 68
+ 0.4904 1 0 ack 40 ------- 0 1.0 0.0 43 105
- 0.4904 1 0 ack 40 ------- 0 1.0 0.0 43 105
r 0.4904 1 0 ack 40 ------- 0 1.0 0.0 42 103
+ 0.4904 0 1 tcp 1040 ------- 0 0.0 1.0 62 106
- 0.49072 0 1 tcp 1040 ------- 0 0.0 1.0 45 72
r 0.49872 0 1 tcp 1040 ------- 0 0.0 1.0 44 70
+ 0.49872 1 0 ack 40 ------- 0 1.0 0.0 44 107
- 0.49872 1 0 ack 40 ------- 0 1.0 0.0 44 107
r 0.49872 1 0 ack 40 ------- 0 1.0 0.0 43 105
+ 0.49872 0 1 tcp 1040 ------- 0 0.0 1.0 63 108
- 0.49904 0 1 tcp 1040 ------- 0 0.0 1.0 46 74
r 0.50704 0 1 tcp 1040 ------- 0 0.0 1.0 45 72
+ 0.50704 1 0 ack 40 ------- 0 1.0 0.0 45 109
- 0.50704 1 0 ack 40 ------- 0 1.0 0.0 45 109
r 0.50704 1 0 ack 40 ------- 0 1.0 0.0 44 107
+ 0.50704 0 1 tcp 1040 ------- 0 0.0 1.0 64 110
- 0.50736 0 1 tcp 1040 ------- 0 0.0 1.0 47 76
r 0.51536 1 0 ack 40 ------- 0 1.0 0.0 45 109
+ 0.51536 0 1 tcp 1040 ------- 0 0.0 1.0 65 111
r 0.51536 0 1 tcp 1040 ------- 0 0.0 1.0 46 74
+ 0.51536 1 0 ack 40 ------- 0 1.0 0.0 46 112
- 0.51536 1 0 ack 40 ------- 0 1.0 0.0 46 112
- 0.51568 0 1 tcp 1040 ------- 0 0.0 1.0 48 78
r 0.52368 0 1 tcp 1040 ------- 0 0.0 1.0 47 76
+ 0.52368 1 0 ack 40 ------- 0 1.0 0.0 47 113
- 0.52368 1 0 ack 40 ------- 0 1.0 0.0 47 113
r 0.52368 1 0 ack 40 ------- 0 1.0 0.0 46 112
+ 0.52368 0 1 tcp 1040 ------- 0 0.0 1.0 66 114
- 0.524 0 1 tcp 1040 ------- 0 0.0 1.0 49 80
r 0.532 0 1 tcp 1040 ------- 0 0.0 1.0 48 78
+ 0.532 1 0 ack 40 ------- 0 1.0 0.0 48 115
- 0.532 1 0 ack 40 ------- 0 1.0 0.0 48 115
r 0.532 1 0 ack 40 ------- 0 1.0 0.0 47 113
+ 0.532 0 1 tcp 1040 ------- 0 0.0 1.0 67 116
- 0.53232 0 1 tcp 1040 ------- 0 0.0 1.0 50 82
r 0.54032 0 1 tcp 1040 ------- 0 0.0 1.0 49 80
+ 0.54032 1 0 ack 40 ------- 0 1.0 0.0 49 117
- 0.54032 1 0 ack 40 ------- 0 1.0 0.0 49 117
r 0.54032 1 0 ack 40 ------- 0 1.0 0.0 48 115
+ 0.54032 0 1 tcp 1040 ------- 0 0.0 1.0 68 118
- 0.54064 0 1 tcp 1040 ------- 0 0.0 1.0 51 84
r 0.54864 0 1 tcp 1040 ------- 0 0.0 1.0 50 82
+ 0.54864 1 0 ack 40 ------- 0 1.0 0.0 50 119
- 0.54864 1 0 ack 40 ------- 0 1.0 0.0 50 119
r 0.54864 1 0 ack 40 ------- 0 1.0 0.0 49 117
+ 0.54864 0 1 tcp 1040 ------- 0 0.0 1.0 69 120
- 0.54896 0 1 tcp 1040 ------- 0 0.0 1.0 52 86
r 0.55696 0 1 tcp 1040 ------- 0 0.0 1.0 51 84
+ 0.55696 1 0 ack 40 ------- 0 1.0 0.0 51 121
- 0.55696 1 0 ack 40 ------- 0 1.0 0.0 51 121
r 0.55696 1 0 ack 40 ------- 0 1.0 0.0 50 119
+ 0.55696 0 1 tcp 1040 ------- 0 0.0 1.0 70 122
- 0.55728 0 1 tcp 1040 ------- 0 0.0 1.0 53 88
r 0.56528 0 1 tcp 1040 ------- 0 0.0 1.0 52 86
+ 0.56528 1 0 ack 40 ------- 0 1.0 0.0 52 123
- 0.56528 1 0 ack 40 ------- 0 1.0 0.0 52 123
r 0.56528 1 0 ack 40 ------- 0 1.0 0.0 51 121
+ 0.56528 0 1 tcp 1040 ------- 0 0.0 1.0 71 124
- 0.5656 0 1 tcp 1040 ------- 0 0.0 1.0 54 90
r 0.5736 0 1 tcp 1040 ------- 0 0.0 1.0 53 88
+ 0.5736 1 0 ack 40 ------- 0 1.0 0.0 53 125
- 0.5736 1 0 ack 40 ------- 0 1.0 0.0 53 125
r 0.5736 1 0 ack 40 ------- 0 1.0 0.0 52 123
+ 0.5736 0 1 tcp 1040 ------- 0 0.0 1.0 72 126
- 0.57392 0 1 tcp 1040 ------- 0 0.0 1.0 55 92
r 0.58192 0 1 tcp 1040 ------- 0 0.0 1.0 54 90
+ 0.58192 1 0 ack 40 ------- 0 1.0 0.0 54 127
- 0.58192 1 0 ack 40 ------- 0 1.0 0.0 54 127
r 0.58192 1 0 ack 40 ------- 0 1.0 0.0 53 125
+ 0.58192 0 1 tcp 1040 ------- 0 0.0 1.0 73 128
- 0.58224 0 1 tcp 1040 ------- 0 0.0 1.0 56 94
r 0.59024 0 1 tcp 1040 ------- 0 0.0 1.0 55 92
+ 0.59024 1 0 ack 40 ------- 0 1.0 0.0 55 129
- 0.59024 1 0 ack 40 ------- 0 1.0 0.0 55 129
r 0.59024 1 0 ack 40 ------- 0 1.0 0.0 54 127
+ 0.59024 0 1 tcp 1040 ------- 0 0.0 1.0 74 130
- 0.59056 0 1 tcp 1040 ------- 0 0.0 1.0 57 96
r 0.59856 0 1 tcp 1040 ------- 0 0.0 1.0 56 94
+ 0.59856 1 0 ack 40 ------- 0 1.0 0.0 56 131
- 0.59856 1 0 ack 40 ------- 0 1.0 0.0 56 131
r 0.59856 1 0 ack 40 ------- 0 1.0 0.0 55 129
+ 0.59856 0 1 tcp 1040 ------- 0 0.0 1.0 75 132
- 0.59888 0 1 tcp 1040 ------- 0 0.0 1.0 58 98
r 0.60688 0 1 tcp 1040 ------- 0 0.0 1.0 57 96
+ 0.60688 1 0 ack 40 ------- 0 1.0 0.0 57 133
- 0.60688 1 0 ack 40 ------- 0 1.0 0.0 57 133
r 0.60688 1 0 ack 40 ------- 0 1.0 0.0 56 131
+ 0.60688 0 1 tcp 1040 ------- 0 0.0 1.0 76 134
- 0.6072 0 1 tcp 1040 ------- 0 0.0 1.0 59 100
r 0.6152 0 1 tcp 1040 ------- 0 0.0 1.0 58 98
+ 0.6152 1 0 ack 40 ------- 0 1.0 0.0 58 135
- 0.6152 1 0 ack 40 ------- 0 1.0 0.0 58 135
r 0.6152 1 0 ack 40 ------- 0 1.0 0.0 57 133
+ 0.6152 0 1 tcp 1040 ------- 0 0.0 1.0 77 136
- 0.61552 0 1 tcp 1040 ------- 0 0.0 1.0 60 102
r 0.62352 0 1 tcp 1040 ------- 0 0.0 1.0 59 100
+ 0.62352 1 0 ack 40 ------- 0 1.0 0.0 59 137
- 0.62352 1 0 ack 40 ------- 0 1.0 0.0 59 137
r 0.62352 1 0 ack 40 ------- 0 1.0 0.0 58 135
+ 0.62352 0 1 tcp 1040 ------- 0 0.0 1.0 78 138
- 0.62384 0 1 tcp 1040 ------- 0 0.0 1.0 61 104
r 0.63184 0 1 tcp 1040 ------- 0 0.0 1.0 60 102
+ 0.63184 1 0 ack 40 ------- 0 1.0 0.0 60 139
- 0.63184 1 0 ack 40 ------- 0 1.0 0.0 60 139
r 0.63184 1 0 ack 40 ------- 0 1.0 0.0 59 137
+ 0.63184 0 1 tcp 1040 ------- 0 0.0 1.0 79 140
- 0.63216 0 1 tcp 1040 ------- 0 0.0 1.0 62 106
r 0.64016 0 1 tcp 1040 ------- 0 0.0 1.0 61 104
+ 0.64016 1 0 ack 40 ------- 0 1.0 0.0 61 141
- 0.64016 1 0 ack 40 ------- 0 1.0 0.0 61 141
r 0.64016 1 0 ack 40 ------- 0 1.0 0.0 60 139
+ 0.64016 0 1 tcp 1040 ------- 0 0.0 1.0 80 142
- 0.64048 0 1 tcp 1040 ------- 0 0.0 1.0 63 108
r 0.64848 0 1 tcp 1040 ------- 0 0.0 1.0 62 106
+ 0.64848 1 0 ack 40 ------- 0 1.0 0.0 62 143
- 0.64848 1 0 ack 40 ------- 0 1.0 0.0 62 143
r 0.64848 1 0 ack 40 ------- 0 1.0 0.0 61 141
+ 0.64848 0 1 tcp 1040 ------- 0 0.0 1.0 81 144
- 0.6488 0 1 tcp 1040 ------- 0 0.0 1.0 64 110
r 0.6568 0 1 tcp 1040 ------- 0 0.0 1.0 63 108
+ 0.6568 1 0 ack 40 ------- 0 1.0 0.0 63 145
- 0.6568 1 0 ack 40 ------- 0 1.0 0.0 63 145
r 0.6568 1 0 ack 40 ------- 0 1.0 0.0 62 143
+ 0.6568 0 1 tcp 1040 ------- 0 0.0 1.0 82 146
- 0.65712 0 1 tcp 1040 ------- 0 0.0 1.0 65 111
r 0.66512 0 1 tcp 1040 ------- 0 0.0 1.0 64 110
+ 0.66512 1 0 ack 40 ------- 0 1.0 0.0 64 147
- 0.66512 1 0 ack 40 ------- 0 1.0 0.0 64 147
r 0.66512 1 0 ack 40 ------- 0 1.0 0.0 63 145
+ 0.66512 0 1 tcp 1040 ------- 0 0.0 1.0 83 148
- 0.66544 0 1 tcp 1040 ------- 0 0.0 1.0 66 114
r 0.67344 0 1 tcp 1040 ------- 0 0.0 1.0 65 111
+ 0.67344 1 0 ack 40 ------- 0 1.0 0.0 65 149
- 0.67344 1 0 ack 40 ------- 0 1.0 0.0 65 149
r 0.67344 1 0 ack 40 ------- 0 1.0 0.0 64 147
+ 0.67344 0 1 tcp 1040 ------- 0 0.0 1.0 84 150
- 0.67376 0 1 tcp 1040 ------- 0 0.0 1.0 67 116
r 0.68176 0 1 tcp 1040 ------- 0 0.0 1.0 66 114
+ 0.68176 1 0 ack 40 ------- 0 1.0 0.0 66 151
- 0.68176 1 0 ack 40 ------- 0 1.0 0.0 66 151
r 0.68176 1 0 ack 40 ------- 0 1.0 0.0 65 149
+ 0.68176 0 1 tcp 1040 ------- 0 0.0 1.0 85 152
- 0.68208 0 1 tcp 1040 ------- 0 0.0 1.0 68 118
r 0.69008 0 1 tcp 1040 ------- 0 0.0 1.0 67 116
+ 0.69008 1 0 ack 40 ------- 0 1.0 0.0 67 153
- 0.69008 1 0 ack 40 ------- 0 1.0 0.0 67 153
r 0.69008 1 0 ack 40 ------- 0 1.0 0.0 66 151
+ 0.69008 0 1 tcp 1040 ------- 0 0.0 1.0 86 154
- 0.6904 0 1 tcp 1040 ------- 0 0.0 1.0 69 120
r 0.6984 0 1 tcp 1040 ------- 0 0.0 1.0 68 118
+ 0.6984 1 0 ack 40 ------- 0 1.0 0.0 68 155
- 0.6984 1 0 ack 40 ------- 0 1.0 0.0 68 155
r 0.6984 1 0 ack 40 ------- 0 1.0 0.0 67 153
+ 0.6984 0 1 tcp 1040 ------- 0 0.0 1.0 87 156
- 0.69872 0 1 tcp 1040 ------- 0 0.0 1.0 70 122
r 0.70672 0 1 tcp 1040 ------- 0 0.0 1.0 69 120
+ 0.70672 1 0 ack 40 ------- 0 1.0 0.0 69 157
- 0.70672 1 0 ack 40 ------- 0 1.0 0.0 69 157
r 0.70672 1 0 ack 40 ------- 0 1.0 0.0 68 155
+ 0.70672 0 1 tcp 1040 ------- 0 0.0 1.0 88 158
- 0.70704 0 1 tcp 1040 ------- 0 0.0 1.0 71 124
r 0.71504 0 1 tcp 1040 ------- 0 0.0 1.0 70 122
+ 0.71504 1 0 ack 40 ------- 0 1.0 0.0 70 159
- 0.71504 1 0 ack 40 ------- 0 1.0 0.0 70 159
r 0.71504 1 0 ack 40 ------- 0 1.0 0.0 69 157
+ 0.71504 0 1 tcp 1040 ------- 0 0.0 1.0 89 160
- 0.71536 0 1 tcp 1040 ------- 0 0.0 1.0 72 126
r 0.72336 0 1 tcp 1040 ------- 0 0.0 1.0 71 124
+ 0.72336 1 0 ack 40 ------- 0 1.0 0.0 71 161
- 0.72336 1 0 ack 40 ------- 0 1.0 0.0 71 161
r 0.72336 1 0 ack 40 ------- 0 1.0 0.0 70 159
+ 0.72336 0 1 tcp 1040 ------- 0 0.0 1.0 90 162
- 0.72368 0 1 tcp 1040 ------- 0 0.0 1.0 73 128
r 0.73168 0 1 tcp 1040 ------- 0 0.0 1.0 72 126
+ 0.73168 1 0 ack 40 ------- 0 1.0 0.0 72 163
- 0.73168 1 0 ack 40 ------- 0 1.0 0.0 72 163
r 0.73168 1 0 ack 40 ------- 0 1.0 0.0 71 161
+ 0.73168 0 1 tcp 1040 ------- 0 0.0 1.0 91 164
- 0.732 0 1 tcp 1040 ------- 0 0.0 1.0 74 130
r 0.74 0 1 tcp 1040 ------- 0 0.0 1.0 73 128
+ 0.74 1 0 ack 40 ------- 0 1.0 0.0 73 165
- 0.74 1 0 ack 40 ------- 0 1.0 0.0 73 165
r 0.74 1 0 ack 40 ------- 0 1.0 0.0 72 163
+ 0.74 0 1 tcp 1040 ------- 0 0.0 1.0 92 166
- 0.74032 0 1 tcp 1040 ------- 0 0.0 1.0 75 132
r 0.74832 0 1 tcp 1040 ------- 0 0.0 1.0 74 130
+ 0.74832 1 0 ack 40 ------- 0 1.0 0.0 74 167
- 0.74832 1 0 ack 40 ------- 0 1.0 0.0 74 167
r 0.74832 1 0 ack 40 ------- 0 1.0 0.0 73 165
+ 0.74832 0 1 tcp 1040 ------- 0 0.0 1.0 93 168
- 0.74864 0 1 tcp 1040 ------- 0 0.0 1.0 76 134
r 0.75664 0 1 tcp 1040 ------- 0 0.0 1.0 75 132
+ 0.75664 1 0 ack 40 ------- 0 1.0 0.0 75 169
- 0.75664 1 0 ack 40 ------- 0 1.0 0.0 75 169
r 0.75664 1 0 ack 40 ------- 0 1.0 0.0 74 167
+ 0.75664 0 1 tcp 1040 ------- 0 0.0 1.0 94 170
- 0.75696 0 1 tcp 1040 ------- 0 0.0 1.0 77 136
r 0.76496 0 1 tcp 1040 ------- 0 0.0 1.0 76 134
+ 0.76496 1 0 ack 40 ------- 0 1.0 0.0 76 171
- 0.76496 1 0 ack 40 ------- 0 1.0 0.0 76 171
r 0.76496 1 0 ack 40 ------- 0 1.0 0.0 75 169
+ 0.76496 0 1 tcp 1040 ------- 0 0.0 1.0 95 172
- 0.76528 0 1 tcp 1040 ------- 0 0.0 1.0 78 138
r 0.77328 0 1 tcp 1040 ------- 0 0.0 1.0 77 136
+ 0.77328 1 0 ack 40 ------- 0 1.0 0.0 77 173
- 0.77328 1 0 ack 40 ------- 0 1.0 0.0 77 173
r 0.77328 1 0 ack 40 ------- 0 1.0 0.0 76 171
+ 0.77328 0 1 tcp 1040 ------- 0 0.0 1.0 96 174
- 0.7736 0 1 tcp 1040 ------- 0 0.0 1.0 79 140
r 0.7816 0 1 tcp 1040 ------- 0 0.0 1.0 78 138
+ 0.7816 1 0 ack 40 ------- 0 1.0 0.0 78 175
- 0.7816 1 0 ack 40 ------- 0 1.0 0.0 78 175
r 0.7816 1 0 ack 40 ------- 0 1.0 0.0 77 173
+ 0.7816 0 1 tcp 1040 ------- 0 0.0 1.0 97 176
- 0.78192 0 1 tcp 1040 ------- 0 0.0 1.0 80 142
r 0.78992 0 1 tcp 1040 ------- 0 0.0 1.0 79 140
+ 0.78992 1 0 ack 40 ------- 0 1.0 0.0 79 177
- 0.78992 1 0 ack 40 ------- 0 1.0 0.0 79 177
r 0.78992 1 0 ack 40 ------- 0 1.0 0.0 78 175
+ 0.78992 0 1 tcp 1040 ------- 0 0.0 1.0 98 178
- 0.79024 0 1 tcp 1040 ------- 0 0.0 1.0 81 144
r 0.79824 0 1 tcp 1040 ------- 0 0.0 1.0 80 142
+ 0.79824 1 0 ack 40 ------- 0 1.0 0.0 80 179
- 0.79824 1 0 ack 40 ------- 0 1.0 0.0 80 179
r 0.79824 1 0 ack 40 ------- 0 1.0 0.0 79 177
+ 0.79824 0 1 tcp 1040 ------- 0 0.0 1.0 99 180
- 0.79856 0 1 tcp 1040 ------- 0 0.0 1.0 82 146
r 0.80656 0 1 tcp 1040 ------- 0 0.0 1.0 81 144
+ 0.80656 1 0 ack 40 ------- 0 1.0 0.0 81 181
- 0.80656 1 0 ack 40 ------- 0 1.0 0.0 81 181
r 0.80656 1 0 ack 40 ------- 0 1.0 0.0 80 179
+ 0.80656 0 1 tcp 1040 ------- 0 0.0 1.0 100 182
- 0.80688 0 1 tcp 1040 ------- 0 0.0 1.0 83 148
r 0.81488 0 1 tcp 1040 ------- 0 0.0 1.0 82 146
+ 0.81488 1 0 ack 40 ------- 0 1.0 0.0 82 183
- 0.81488 1 0 ack 40 ------- 0 1.0 0.0 82 183
r 0.81488 1 0 ack 40 ------- 0 1.0 0.0 81 181
+ 0.81488 0 1 tcp 1040 ------- 0 0.0 1.0 101 184
- 0.8152 0 1 tcp 1040 ------- 0 0.0 1.0 84 150
r 0.8232 0 1 tcp 1040 ------- 0 0.0 1.0 83 148
+ 0.8232 1 0 ack 40 ------- 0 1.0 0.0 83 185
- 0.8232 1 0 ack 40 ------- 0 1.0 0.0 83 185
r 0.8232 1 0 ack 40 ------- 0 1.0 0.0 82 183
+ 0.8232 0 1 tcp 1040 ------- 0 0.0 1.0 102 186
- 0.82352 0 1 tcp 1040 ------- 0 0.0 1.0 85 152
r 0.83152 0 1 tcp 1040 ------- 0 0.0 1.0 84 150
+ 0.83152 1 0 ack 40 ------- 0 1.0 0.0 84 187
- 0.83152 1 0 ack 40 ------- 0 1.0 0.0 84 187
r 0.83152 1 0 ack 40 ------- 0 1.0 0.0 83 185
+ 0.83152 0 1 tcp 1040 ------- 0 0.0 1.0 103 188
- 0.83184 0 1 tcp 1040 ------- 0 0.0 1.0 86 154
r 0.83984 0 1 tcp 1040 ------- 0 0.0 1.0 85 152
+ 0.83984 1 0 ack 40 ------- 0 1.0 0.0 85 189
- 0.83984 1 0 ack 40 ------- 0 1.0 0.0 85 189
r 0.83984 1 0 ack 40 ------- 0 1.0 0.0 84 187
+ 0.83984 0 1 tcp 1040 ------- 0 0.0 1.0 104 190
- 0.84016 0 1 tcp 1040 ------- 0 0.0 1.0 87 156
r 0.84816 0 1 tcp 1040 ------- 0 0.0 1.0 86 154
+ 0.84816 1 0 ack 40 ------- 0 1.0 0.0 86 191
- 0.84816 1 0 ack 40 ------- 0 1.0 0.0 86 191
r 0.84816 1 0 ack 40 ------- 0 1.0 0.0 85 189
+ 0.84816 0 1 tcp 1040 ------- 0 0.0 1.0 105 192
- 0.84848 0 1 tcp 1040 ------- 0 0.0 1.0 88 158
r 0.85648 0 1 tcp 1040 ------- 0 0.0 1.0 87 156
+ 0.85648 1 0 ack 40 ------- 0 1.0 0.0 87 193
- 0.85648 1 0 ack 40 ------- 0 1.0 0.0 87 193
r 0.85648 1 0 ack 40 ------- 0 1.0 0.0 86 191
+ 0.85648 0 1 tcp 1040 ------- 0 0.0 1.0 106 194
- 0.8568 0 1 tcp 1040 ------- 0 0.0 1.0 89 160
r 0.8648 0 1 tcp 1040 ------- 0 0.0 1.0 88 158
+ 0.8648 1 0 ack 40 ------- 0 1.0 0.0 88 195
- 0.8648 1 0 ack 40 ------- 0 1.0 0.0 88 195
r 0.8648 1 0 ack 40 ------- 0 1.0 0.0 87 193
+ 0.8648 0 1 tcp 1040 ------- 0 0.0 1.0 107 196
- 0.86512 0 1 tcp 1040 ------- 0 0.0 1.0 90 162
r 0.87312 0 1 tcp 1040 ------- 0 0.0 1.0 89 160
+ 0.87312 1 0 ack 40 ------- 0 1.0 0.0 89 197
- 0.87312 1 0 ack 40 ------- 0 1.0 0.0 89 197
r 0.87312 1 0 ack 40 ------- 0 1.0 0.0 88 195
+ 0.87312 0 1 tcp 1040 ------- 0 0.0 1.0 108 198
- 0.87344 0 1 tcp 1040 ------- 0 0.0 1.0 91 164
r 0.88144 0 1 tcp 1040 ------- 0 0.0 1.0 90 162
+ 0.88144 1 0 ack 40 ------- 0 1.0 0.0 90 199
- 0.88144 1 0 ack 40 ------- 0 1.0 0.0 90 199
r 0.88144 1 0 ack 40 ------- 0 1.0 0.0 89 197
+ 0.88144 0 1 tcp 1040 ------- 0 0.0 1.0 109 200
- 0.88176 0 1 tcp 1040 ------- 0 0.0 1.0 92 166
r 0.88976 0 1 tcp 1040 ------- 0 0.0 1.0 91 164
+ 0.88976 1 0 ack 40 ------- 0 1.0 0.0 91 201
- 0.88976 1 0 ack 40 ------- 0 1.0 0.0 91 201
r 0.88976 1 0 ack 40 ------- 0 1.0 0.0 90 199
+ 0.88976 0 1 tcp 1040 ------- 0 0.0 1.0 110 202
- 0.89008 0 1 tcp 1040 ------- 0 0.0 1.0 93 168
r 0.89808 0 1 tcp 1040 ------- 0 0.0 1.0 92 166
+ 0.89808 1 0 ack 40 ------- 0 1.0 0.0 92 203
- 0.89808 1 0 ack 40 ------- 0 1.0 0.0 92 203
r 0.89808 1 0 ack 40 ------- 0 1.0 0.0 91 201
+ 0.89808 0 1 tcp 1040 ------- 0 0.0 1.0 111 204
- 0.8984 0 1 tcp 1040 ------- 0 0.0 1.0 94 170
r 0.9064 0 1 tcp 1040 ------- 0 0.0 1.0 93 168
+ 0.9064 1 0 ack 40 ------- 0 1.0 0.0 93 205
- 0.9064 1 0 ack 40 ------- 0 1.0 0.0 93 205
r 0.9064 1 0 ack 40 ------- 0 1.0 0.0 92 203
+ 0.9064 0 1 tcp 1040 ------- 0 0.0 1.0 112 206
- 0.90672 0 1 tcp 1040 ------- 0 0.0 1.0 95 172
r 0.91472 0 1 tcp 1040 ------- 0 0.0 1.0 94 170
+ 0.91472 1 0 ack 40 ------- 0 1.0 0.0 94 207
- 0.91472 1 0 ack 40 ------- 0 1.0 0.0 94 207
r 0.91472 1 0 ack 40 ------- 0 1.0 0.0 93 205
+ 0.91472 0 1 tcp 1040 ------- 0 0.0 1.0 113 208
- 0.91504 0 1 tcp 1040 ------- 0 0.0 1.0 96 174
r 0.92304 0 1 tcp 1040 ------- 0 0.0 1.0 95 172
+ 0.92304 1 0 ack 40 ------- 0 1.0 0.0 95 209
- 0.92304 1 0 ack 40 ------- 0 1.0 0.0 95 209
r 0.92304 1 0 ack 40 ------- 0 1.0 0.0 94 207
+ 0.92304 0 1 tcp 1040 ------- 0 0.0 1.0 114 210
- 0.92336 0 1 tcp 1040 ------- 0 0.0 1.0 97 176
r 0.93136 0 1 tcp 1040 ------- 0 0.0 1.0 96 174
+ 0.93136 1 0 ack 40 ------- 0 1.0 0.0 96 211
- 0.93136 1 0 ack 40 ------- 0 1.0 0.0 96 211
r 0.93136 1 0 ack 40 ------- 0 1.0 0.0 95 209
+ 0.93136 0 1 tcp 1040 ------- 0 0.0 1.0 115 212
- 0.93168 0 1 tcp 1040 ------- 0 0.0 1.0 98 178
r 0.93968 0 1 tcp 1040 ------- 0 0.0 1.0 97 176
+ 0.93968 1 0 ack 40 ------- 0 1.0 0.0 97 213
- 0.93968 1 0 ack 40 ------- 0 1.0 0.0 97 213
r 0.93968 1 0 ack 40 ------- 0 1.0 0.0 96 211
+ 0.93968 0 1 tcp 1040 ------- 0 0.0 1.0 116 214
- 0.94 0 1 tcp 1040 ------- 0 0.0 1.0 99 180
r 0.948 0 1 tcp 1040 ------- 0 0.0 1.0 98 178
+ 0.948 1 0 ack 40 ------- 0 1.0 0.0 98 215
- 0.948 1 0 ack 40 ------- 0 1.0 0.0 98 215
r 0.948 1 0 ack 40 ------- 0 1.0 0.0 97 213
+ 0.948 0 1 tcp 1040 ------- 0 0.0 1.0 117 216
- 0.94832 0 1 tcp 1040 ------- 0 0.0 1.0 100 182
r 0.95632 0 1 tcp 1040 ------- 0 0.0 1.0 99 180
+ 0.95632 1 0 ack 40 ------- 0 1.0 0.0 99 217
- 0.95632 1 0 ack 40 ------- 0 1.0 0.0 99 217
r 0.95632 1 0 ack 40 ------- 0 1.0 0.0 98 215
+ 0.95632 0 1 tcp 1040 ------- 0 0.0 1.0 118 218
- 0.95664 0 1 tcp 1040 ------- 0 0.0 1.0 101 184
r 0.96464 0 1 tcp 1040 ------- 0 0.0 1.0 100 182
+ 0.96464 1 0 ack 40 ------- 0 1.0 0.0 100 219
- 0.96464 1 0 ack 40 ------- 0 1.0 0.0 100 219
r 0.96464 1 0 ack 40 ------- 0 1.0 0.0 99 217
+ 0.96464 0 1 tcp 1040 ------- 0 0.0 1.0 119 220
- 0.96496 0 1 tcp 1040 ------- 0 0.0 1.0 102 186
r 0.97296 0 1 tcp 1040 ------- 0 0.0 1.0 101 184
+ 0.97296 1 0 ack 40 ------- 0 1.0 0.0 101 221
- 0.97296 1 0 ack 40 ------- 0 1.0 0.0 101 221
r 0.97296 1 0 ack 40 ------- 0 1.0 0.0 100 219
+ 0.97296 0 1 tcp 1040 ------- 0 0.0 1.0 120 222
- 0.97328 0 1 tcp 1040 ------- 0 0.0 1.0 103 188
r 0.98128 0 1 tcp 1040 ------- 0 0.0 1.0 102 186
+ 0.98128 1 0 ack 40 ------- 0 1.0 0.0 102 223
- 0.98128 1 0 ack 40 ------- 0 1.0 0.0 102 223
r 0.98128 1 0 ack 40 ------- 0 1.0 0.0 101 221
+ 0.98128 0 1 tcp 1040 ------- 0 0.0 1.0 121 224
- 0.9816 0 1 tcp 1040 ------- 0 0.0 1.0 104 190
r 0.9896 0 1 tcp 1040 ------- 0 0.0 1.0 103 188
+ 0.9896 1 0 ack 40 ------- 0 1.0 0.0 103 225
- 0.9896 1 0 ack 40 ------- 0 1.0 0.0 103 225
r 0.9896 1 0 ack 40 ------- 0 1.0 0.0 102 223
+ 0.9896 0 1 tcp 1040 ------- 0 0.0 1.0 122 226
- 0.98992 0 1 tcp 1040 ------- 0 0.0 1.0 105 192
r 0.99792 0 1 tcp 1040 ------- 0 0.0 1.0 104 190
+ 0.99792 1 0 ack 40 ------- 0 1.0 0.0 104 227
- 0.99792 1 0 ack 40 ------- 0 1.0 0.0 104 227
r 0.99792 1 0 ack 40 ------- 0 1.0 0.0 103 225