+ 0.1 1 0 tcp 40 ------- 0 1.0 0.0 0 0
- 0.1 1 0 tcp 40 ------- 0 1.0 0.0 0 0
r 0.102032 1 0 tcp 40 ------- 0 1.0 0.0 0 0
+ 0.102032 0 1 ack 40 ------- 0 0.0 1.0 0 1
- 0.102032 0 1 ack 40 ------- 0 0.0 1.0 0 1
r 0.104064 0 1 ack 40 ------- 0 0.0 1.0 0 1
+ 0.104064 1 0 tcp 1040 ------- 0 1.0 0.0 1 2
- 0.104064 1 0 tcp 1040 ------- 0 1.0 0.0 1 2
+ 0.104064 1 0 tcp 1040 ------- 0 1.0 0.0 2 3
- 0.104896 1 0 tcp 1040 ------- 0 1.0 0.0 2 3
r 0.106896 1 0 tcp 1040 ------- 0 1.0 0.0 1 2
+ 0.106896 0 1 ack 40 ------- 0 0.0 1.0 1 4
- 0.106896 0 1 ack 40 ------- 0 0.0 1.0 1 4
r 0.107728 1 0 tcp 1040 ------- 0 1.0 0.0 2 3
+ 0.107728 0 1 ack 40 ------- 0 0.0 1.0 2 5
- 0.107728 0 1 ack 40 ------- 0 0.0 1.0 2 5
r 0.108928 0 1 ack 40 ------- 0 0.0 1.0 1 4
+ 0.108928 1 0 tcp 1040 ------- 0 1.0 0.0 3 6
- 0.108928 1 0 tcp 1040 ------- 0 1.0 0.0 3 6
+ 0.108928 1 0 tcp 1040 ------- 0 1.0 0.0 4 7
r 0.10976 0 1 ack 40 ------- 0 0.0 1.0 2 5
+ 0.10976 1 0 tcp 1040 ------- 0 1.0 0.0 5 8
+ 0.10976 1 0 tcp 1040 ------- 0 1.0 0.0 6 9
d 0.10976 1 0 tcp 1040 ------- 0 1.0 0.0 6 9
- 0.10976 1 0 tcp 1040 ------- 0 1.0 0.0 4 7
- 0.110592 1 0 tcp 1040 ------- 0 1.0 0.0 5 8
r 0.11176 1 0 tcp 1040 ------- 0 1.0 0.0 3 6
+ 0.11176 0 1 ack 40 ------- 0 0.0 1.0 3 10
- 0.11176 0 1 ack 40 ------- 0 0.0 1.0 3 10
r 0.112592 1 0 tcp 1040 ------- 0 1.0 0.0 4 7
+ 0.112592 0 1 ack 40 ------- 0 0.0 1.0 4 11
- 0.112592 0 1 ack 40 ------- 0 0.0 1.0 4 11
r 0.113424 1 0 tcp 1040 ------- 0 1.0 0.0 5 8
+ 0.113424 0 1 ack 40 ------- 0 0.0 1.0 5 12
- 0.113424 0 1 ack 40 ------- 0 0.0 1.0 5 12
r 0.113792 0 1 ack 40 ------- 0 0.0 1.0 3 10
+ 0.113792 1 0 tcp 1040 ------- 0 1.0 0.0 7 13
- 0.113792 1 0 tcp 1040 ------- 0 1.0 0.0 7 13
+ 0.113792 1 0 tcp 1040 ------- 0 1.0 0.0 8 14
r 0.114624 0 1 ack 40 ------- 0 0.0 1.0 4 11
+ 0.114624 1 0 tcp 1040 ------- 0 1.0 0.0 9 15
+ 0.114624 1 0 tcp 1040 ------- 0 1.0 0.0 10 16
d 0.114624 1 0 tcp 1040 ------- 0 1.0 0.0 10 16
- 0.114624 1 0 tcp 1040 ------- 0 1.0 0.0 8 14
r 0.115456 0 1 ack 40 ------- 0 0.0 1.0 5 12
+ 0.115456 1 0 tcp 1040 ------- 0 1.0 0.0 11 17
+ 0.115456 1 0 tcp 1040 ------- 0 1.0 0.0 12 18
d 0.115456 1 0 tcp 1040 ------- 0 1.0 0.0 12 18
- 0.115456 1 0 tcp 1040 ------- 0 1.0 0.0 9 15
- 0.116288 1 0 tcp 1040 ------- 0 1.0 0.0 11 17
r 0.116624 1 0 tcp 1040 ------- 0 1.0 0.0 7 13
+ 0.116624 0 1 ack 40 ------- 0 0.0 1.0 5 19
- 0.116624 0 1 ack 40 ------- 0 0.0 1.0 5 19
r 0.117456 1 0 tcp 1040 ------- 0 1.0 0.0 8 14
+ 0.117456 0 1 ack 40 ------- 0 0.0 1.0 5 20
- 0.117456 0 1 ack 40 ------- 0 0.0 1.0 5 20
r 0.118288 1 0 tcp 1040 ------- 0 1.0 0.0 9 15
+ 0.118288 0 1 ack 40 ------- 0 0.0 1.0 5 21
- 0.118288 0 1 ack 40 ------- 0 0.0 1.0 5 21
r 0.118656 0 1 ack 40 ------- 0 0.0 1.0 5 19
+ 0.118656 1 0 tcp 1040 ------- 0 1.0 0.0 13 22
- 0.118656 1 0 tcp 1040 ------- 0 1.0 0.0 13 22
r 0.11912 1 0 tcp 1040 ------- 0 1.0 0.0 11 17
+ 0.11912 0 1 ack 40 ------- 0 0.0 1.0 5 23
- 0.11912 0 1 ack 40 ------- 0 0.0 1.0 5 23
r 0.119488 0 1 ack 40 ------- 0 0.0 1.0 5 20
+ 0.119488 1 0 tcp 1040 ------- 0 1.0 0.0 14 24
- 0.119488 1 0 tcp 1040 ------- 0 1.0 0.0 14 24
r 0.12032 0 1 ack 40 ------- 0 0.0 1.0 5 21
+ 0.12032 1 0 tcp 1040 ---A--- 0 1.0 0.0 6 25
- 0.12032 1 0 tcp 1040 ---A--- 0 1.0 0.0 6 25
r 0.121152 0 1 ack 40 ------- 0 0.0 1.0 5 23
r 0.121488 1 0 tcp 1040 ------- 0 1.0 0.0 13 22
+ 0.121488 0 1 ack 40 ------- 0 0.0 1.0 5 26
- 0.121488 0 1 ack 40 ------- 0 0.0 1.0 5 26
r 0.12232 1 0 tcp 1040 ------- 0 1.0 0.0 14 24
+ 0.12232 0 1 ack 40 ------- 0 0.0 1.0 5 27
- 0.12232 0 1 ack 40 ------- 0 0.0 1.0 5 27
r 0.123152 1 0 tcp 1040 ---A--- 0 1.0 0.0 6 25
+ 0.123152 0 1 ack 40 ------- 0 0.0 1.0 9 28
- 0.123152 0 1 ack 40 ------- 0 0.0 1.0 9 28
r 0.12352 0 1 ack 40 ------- 0 0.0 1.0 5 26
r 0.124352 0 1 ack 40 ------- 0 0.0 1.0 5 27
r 0.125184 0 1 ack 40 ------- 0 0.0 1.0 9 28
+ 0.125184 1 0 tcp 1040 ------- 0 1.0 0.0 10 29
- 0.125184 1 0 tcp 1040 ------- 0 1.0 0.0 10 29
+ 0.125184 1 0 tcp 1040 ------- 0 1.0 0.0 11 30
- 0.126016 1 0 tcp 1040 ------- 0 1.0 0.0 11 30
r 0.128016 1 0 tcp 1040 ------- 0 1.0 0.0 10 29
+ 0.128016 0 1 ack 40 ------- 0 0.0 1.0 11 31
- 0.128016 0 1 ack 40 ------- 0 0.0 1.0 11 31
r 0.128848 1 0 tcp 1040 ------- 0 1.0 0.0 11 30
+ 0.128848 0 1 ack 40 ------- 0 0.0 1.0 11 32
- 0.128848 0 1 ack 40 ------- 0 0.0 1.0 11 32
r 0.130048 0 1 ack 40 ------- 0 0.0 1.0 11 31
+ 0.130048 1 0 tcp 1040 ------- 0 1.0 0.0 12 33
- 0.130048 1 0 tcp 1040 ------- 0 1.0 0.0 12 33
+ 0.130048 1 0 tcp 1040 ------- 0 1.0 0.0 13 34
+ 0.130048 1 0 tcp 1040 ------- 0 1.0 0.0 14 35
r 0.13088 0 1 ack 40 ------- 0 0.0 1.0 11 32
+ 0.13088 1 0 tcp 1040 ------- 0 1.0 0.0 15 36
d 0.13088 1 0 tcp 1040 ------- 0 1.0 0.0 15 36
- 0.13088 1 0 tcp 1040 ------- 0 1.0 0.0 13 34
- 0.131712 1 0 tcp 1040 ------- 0 1.0 0.0 14 35
r 0.13288 1 0 tcp 1040 ------- 0 1.0 0.0 12 33
+ 0.13288 0 1 ack 40 ------- 0 0.0 1.0 14 37
- 0.13288 0 1 ack 40 ------- 0 0.0 1.0 14 37
r 0.133712 1 0 tcp 1040 ------- 0 1.0 0.0 13 34
+ 0.133712 0 1 ack 40 ------- 0 0.0 1.0 14 38
- 0.133712 0 1 ack 40 ------- 0 0.0 1.0 14 38
r 0.134544 1 0 tcp 1040 ------- 0 1.0 0.0 14 35
+ 0.134544 0 1 ack 40 ------- 0 0.0 1.0 14 39
- 0.134544 0 1 ack 40 ------- 0 0.0 1.0 14 39
r 0.134912 0 1 ack 40 ------- 0 0.0 1.0 14 37
+ 0.134912 1 0 tcp 1040 ------- 0 1.0 0.0 16 40
- 0.134912 1 0 tcp 1040 ------- 0 1.0 0.0 16 40
+ 0.134912 1 0 tcp 1040 ------- 0 1.0 0.0 17 41
r 0.135744 0 1 ack 40 ------- 0 0.0 1.0 14 38
+ 0.135744 1 0 tcp 1040 ------- 0 1.0 0.0 18 42
- 0.135744 1 0 tcp 1040 ------- 0 1.0 0.0 17 41
r 0.136576 0 1 ack 40 ------- 0 0.0 1.0 14 39
+ 0.136576 1 0 tcp 1040 ------- 0 1.0 0.0 19 43
- 0.136576 1 0 tcp 1040 ------- 0 1.0 0.0 18 42
- 0.137408 1 0 tcp 1040 ------- 0 1.0 0.0 19 43
r 0.137744 1 0 tcp 1040 ------- 0 1.0 0.0 16 40
+ 0.137744 0 1 ack 40 ------- 0 0.0 1.0 14 44
- 0.137744 0 1 ack 40 ------- 0 0.0 1.0 14 44
r 0.138576 1 0 tcp 1040 ------- 0 1.0 0.0 17 41
+ 0.138576 0 1 ack 40 ------- 0 0.0 1.0 14 45
- 0.138576 0 1 ack 40 ------- 0 0.0 1.0 14 45
r 0.139408 1 0 tcp 1040 ------- 0 1.0 0.0 18 42
+ 0.139408 0 1 ack 40 ------- 0 0.0 1.0 14 46
- 0.139408 0 1 ack 40 ------- 0 0.0 1.0 14 46
r 0.139776 0 1 ack 40 ------- 0 0.0 1.0 14 44
r 0.14024 1 0 tcp 1040 ------- 0 1.0 0.0 19 43
+ 0.14024 0 1 ack 40 ------- 0 0.0 1.0 14 47
- 0.14024 0 1 ack 40 ------- 0 0.0 1.0 14 47
r 0.140608 0 1 ack 40 ------- 0 0.0 1.0 14 45
r 0.14144 0 1 ack 40 ------- 0 0.0 1.0 14 46
r 0.142272 0 1 ack 40 ------- 0 0.0 1.0 14 47
+ 0.3 2 0 tcp 40 ------- 0 2.0 0.1 0 48
- 0.3 2 0 tcp 40 ------- 0 2.0 0.1 0 48
r 0.302032 2 0 tcp 40 ------- 0 2.0 0.1 0 48
+ 0.302032 0 2 ack 40 ------- 0 0.1 2.0 0 49
- 0.302032 0 2 ack 40 ------- 0 0.1 2.0 0 49
r 0.304064 0 2 ack 40 ------- 0 0.1 2.0 0 49
+ 0.304064 2 0 tcp 1040 ------- 0 2.0 0.1 1 50
- 0.304064 2 0 tcp 1040 ------- 0 2.0 0.1 1 50
+ 0.304064 2 0 tcp 1040 ------- 0 2.0 0.1 2 51
- 0.304896 2 0 tcp 1040 ------- 0 2.0 0.1 2 51
r 0.306896 2 0 tcp 1040 ------- 0 2.0 0.1 1 50
+ 0.306896 0 2 ack 40 ------- 0 0.1 2.0 1 52
- 0.306896 0 2 ack 40 ------- 0 0.1 2.0 1 52
r 0.307728 2 0 tcp 1040 ------- 0 2.0 0.1 2 51
+ 0.307728 0 2 ack 40 ------- 0 0.1 2.0 2 53
- 0.307728 0 2 ack 40 ------- 0 0.1 2.0 2 53
r 0.308928 0 2 ack 40 ------- 0 0.1 2.0 1 52
+ 0.308928 2 0 tcp 1040 ------- 0 2.0 0.1 3 54
- 0.308928 2 0 tcp 1040 ------- 0 2.0 0.1 3 54
+ 0.308928 2 0 tcp 1040 ------- 0 2.0 0.1 4 55
r 0.30976 0 2 ack 40 ------- 0 0.1 2.0 2 53
+ 0.30976 2 0 tcp 1040 ------- 0 2.0 0.1 5 56
+ 0.30976 2 0 tcp 1040 ------- 0 2.0 0.1 6 57
d 0.30976 2 0 tcp 1040 ------- 0 2.0 0.1 6 57
- 0.30976 2 0 tcp 1040 ------- 0 2.0 0.1 4 55
- 0.310592 2 0 tcp 1040 ------- 0 2.0 0.1 5 56
r 0.31176 2 0 tcp 1040 ------- 0 2.0 0.1 3 54
+ 0.31176 0 2 ack 40 ------- 0 0.1 2.0 3 58
- 0.31176 0 2 ack 40 ------- 0 0.1 2.0 3 58
r 0.312592 2 0 tcp 1040 ------- 0 2.0 0.1 4 55
+ 0.312592 0 2 ack 40 ------- 0 0.1 2.0 4 59
- 0.312592 0 2 ack 40 ------- 0 0.1 2.0 4 59
r 0.313424 2 0 tcp 1040 ------- 0 2.0 0.1 5 56
+ 0.313424 0 2 ack 40 ------- 0 0.1 2.0 5 60
- 0.313424 0 2 ack 40 ------- 0 0.1 2.0 5 60
r 0.313792 0 2 ack 40 ------- 0 0.1 2.0 3 58
+ 0.313792 2 0 tcp 1040 ------- 0 2.0 0.1 7 61
- 0.313792 2 0 tcp 1040 ------- 0 2.0 0.1 7 61
+ 0.313792 2 0 tcp 1040 ------- 0 2.0 0.1 8 62
r 0.314624 0 2 ack 40 ------- 0 0.1 2.0 4 59
+ 0.314624 2 0 tcp 1040 ------- 0 2.0 0.1 9 63
+ 0.314624 2 0 tcp 1040 ------- 0 2.0 0.1 10 64
d 0.314624 2 0 tcp 1040 ------- 0 2.0 0.1 10 64
- 0.314624 2 0 tcp 1040 ------- 0 2.0 0.1 8 62
r 0.315456 0 2 ack 40 ------- 0 0.1 2.0 5 60
+ 0.315456 2 0 tcp 1040 ------- 0 2.0 0.1 11 65
+ 0.315456 2 0 tcp 1040 ------- 0 2.0 0.1 12 66
d 0.315456 2 0 tcp 1040 ------- 0 2.0 0.1 12 66
- 0.315456 2 0 tcp 1040 ------- 0 2.0 0.1 9 63
- 0.316288 2 0 tcp 1040 ------- 0 2.0 0.1 11 65
r 0.316624 2 0 tcp 1040 ------- 0 2.0 0.1 7 61
+ 0.316624 0 2 ack 40 ------- 0 0.1 2.0 5 67
- 0.316624 0 2 ack 40 ------- 0 0.1 2.0 5 67
r 0.317456 2 0 tcp 1040 ------- 0 2.0 0.1 8 62
+ 0.317456 0 2 ack 40 ------- 0 0.1 2.0 5 68
- 0.317456 0 2 ack 40 ------- 0 0.1 2.0 5 68
r 0.318288 2 0 tcp 1040 ------- 0 2.0 0.1 9 63
+ 0.318288 0 2 ack 40 ------- 0 0.1 2.0 5 69
- 0.318288 0 2 ack 40 ------- 0 0.1 2.0 5 69
r 0.318656 0 2 ack 40 ------- 0 0.1 2.0 5 67
+ 0.318656 2 0 tcp 1040 ------- 0 2.0 0.1 13 70
- 0.318656 2 0 tcp 1040 ------- 0 2.0 0.1 13 70
r 0.31912 2 0 tcp 1040 ------- 0 2.0 0.1 11 65
+ 0.31912 0 2 ack 40 ------- 0 0.1 2.0 5 71
- 0.31912 0 2 ack 40 ------- 0 0.1 2.0 5 71
r 0.319488 0 2 ack 40 ------- 0 0.1 2.0 5 68
+ 0.319488 2 0 tcp 1040 ------- 0 2.0 0.1 14 72
- 0.319488 2 0 tcp 1040 ------- 0 2.0 0.1 14 72
r 0.32032 0 2 ack 40 ------- 0 0.1 2.0 5 69
+ 0.32032 2 0 tcp 1040 ---A--- 0 2.0 0.1 6 73
- 0.32032 2 0 tcp 1040 ---A--- 0 2.0 0.1 6 73
r 0.321152 0 2 ack 40 ------- 0 0.1 2.0 5 71
r 0.321488 2 0 tcp 1040 ------- 0 2.0 0.1 13 70
+ 0.321488 0 2 ack 40 ------- 0 0.1 2.0 5 74
- 0.321488 0 2 ack 40 ------- 0 0.1 2.0 5 74
r 0.32232 2 0 tcp 1040 ------- 0 2.0 0.1 14 72
+ 0.32232 0 2 ack 40 ------- 0 0.1 2.0 5 75
- 0.32232 0 2 ack 40 ------- 0 0.1 2.0 5 75
r 0.323152 2 0 tcp 1040 ---A--- 0 2.0 0.1 6 73
+ 0.323152 0 2 ack 40 ------- 0 0.1 2.0 9 76
- 0.323152 0 2 ack 40 ------- 0 0.1 2.0 9 76
r 0.32352 0 2 ack 40 ------- 0 0.1 2.0 5 74
r 0.324352 0 2 ack 40 ------- 0 0.1 2.0 5 75
r 0.325184 0 2 ack 40 ------- 0 0.1 2.0 9 76
+ 0.325184 2 0 tcp 1040 ------- 0 2.0 0.1 10 77
- 0.325184 2 0 tcp 1040 ------- 0 2.0 0.1 10 77
+ 0.325184 2 0 tcp 1040 ------- 0 2.0 0.1 11 78
- 0.326016 2 0 tcp 1040 ------- 0 2.0 0.1 11 78
r 0.328016 2 0 tcp 1040 ------- 0 2.0 0.1 10 77
+ 0.328016 0 2 ack 40 ------- 0 0.1 2.0 11 79
- 0.328016 0 2 ack 40 ------- 0 0.1 2.0 11 79
r 0.328848 2 0 tcp 1040 ------- 0 2.0 0.1 11 78
+ 0.328848 0 2 ack 40 ------- 0 0.1 2.0 11 80
- 0.328848 0 2 ack 40 ------- 0 0.1 2.0 11 80
r 0.330048 0 2 ack 40 ------- 0 0.1 2.0 11 79
+ 0.330048 2 0 tcp 1040 ------- 0 2.0 0.1 12 81
- 0.330048 2 0 tcp 1040 ------- 0 2.0 0.1 12 81
+ 0.330048 2 0 tcp 1040 ------- 0 2.0 0.1 13 82
+ 0.330048 2 0 tcp 1040 ------- 0 2.0 0.1 14 83
r 0.33088 0 2 ack 40 ------- 0 0.1 2.0 11 80
+ 0.33088 2 0 tcp 1040 ------- 0 2.0 0.1 15 84
d 0.33088 2 0 tcp 1040 ------- 0 2.0 0.1 15 84
- 0.33088 2 0 tcp 1040 ------- 0 2.0 0.1 13 82
- 0.331712 2 0 tcp 1040 ------- 0 2.0 0.1 14 83
r 0.33288 2 0 tcp 1040 ------- 0 2.0 0.1 12 81
+ 0.33288 0 2 ack 40 ------- 0 0.1 2.0 14 85
- 0.33288 0 2 ack 40 ------- 0 0.1 2.0 14 85
r 0.333712 2 0 tcp 1040 ------- 0 2.0 0.1 13 82
+ 0.333712 0 2 ack 40 ------- 0 0.1 2.0 14 86
- 0.333712 0 2 ack 40 ------- 0 0.1 2.0 14 86
r 0.334544 2 0 tcp 1040 ------- 0 2.0 0.1 14 83
+ 0.334544 0 2 ack 40 ------- 0 0.1 2.0 14 87
- 0.334544 0 2 ack 40 ------- 0 0.1 2.0 14 87
r 0.334912 0 2 ack 40 ------- 0 0.1 2.0 14 85
+ 0.334912 2 0 tcp 1040 ------- 0 2.0 0.1 16 88
- 0.334912 2 0 tcp 1040 ------- 0 2.0 0.1 16 88
+ 0.334912 2 0 tcp 1040 ------- 0 2.0 0.1 17 89
+ 0.334912 1 0 tcp 1040 ---A--- 0 1.0 0.0 15 90
- 0.334912 1 0 tcp 1040 ---A--- 0 1.0 0.0 15 90
r 0.335744 0 2 ack 40 ------- 0 0.1 2.0 14 86
+ 0.335744 2 0 tcp 1040 ------- 0 2.0 0.1 18 91
- 0.335744 2 0 tcp 1040 ------- 0 2.0 0.1 17 89
r 0.336576 0 2 ack 40 ------- 0 0.1 2.0 14 87
+ 0.336576 2 0 tcp 1040 ------- 0 2.0 0.1 19 92
- 0.336576 2 0 tcp 1040 ------- 0 2.0 0.1 18 91
- 0.337408 2 0 tcp 1040 ------- 0 2.0 0.1 19 92
r 0.337744 2 0 tcp 1040 ------- 0 2.0 0.1 16 88
+ 0.337744 0 2 ack 40 ------- 0 0.1 2.0 14 93
- 0.337744 0 2 ack 40 ------- 0 0.1 2.0 14 93
r 0.337744 1 0 tcp 1040 ---A--- 0 1.0 0.0 15 90
+ 0.337744 0 1 ack 40 ------- 0 0.0 1.0 19 94
- 0.337744 0 1 ack 40 ------- 0 0.0 1.0 19 94
r 0.338576 2 0 tcp 1040 ------- 0 2.0 0.1 17 89
+ 0.338576 0 2 ack 40 ------- 0 0.1 2.0 14 95
- 0.338576 0 2 ack 40 ------- 0 0.1 2.0 14 95
r 0.339408 2 0 tcp 1040 ------- 0 2.0 0.1 18 91
+ 0.339408 0 2 ack 40 ------- 0 0.1 2.0 14 96
- 0.339408 0 2 ack 40 ------- 0 0.1 2.0 14 96
r 0.339776 0 2 ack 40 ------- 0 0.1 2.0 14 93
r 0.339776 0 1 ack 40 ------- 0 0.0 1.0 19 94
+ 0.339776 1 0 tcp 1040 ------- 0 1.0 0.0 20 97
- 0.339776 1 0 tcp 1040 ------- 0 1.0 0.0 20 97
+ 0.339776 1 0 tcp 1040 ------- 0 1.0 0.0 21 98
r 0.34024 2 0 tcp 1040 ------- 0 2.0 0.1 19 92
+ 0.34024 0 2 ack 40 ------- 0 0.1 2.0 14 99
- 0.34024 0 2 ack 40 ------- 0 0.1 2.0 14 99
r 0.340608 0 2 ack 40 ------- 0 0.1 2.0 14 95
- 0.340608 1 0 tcp 1040 ------- 0 1.0 0.0 21 98
r 0.34144 0 2 ack 40 ------- 0 0.1 2.0 14 96
r 0.342272 0 2 ack 40 ------- 0 0.1 2.0 14 99
r 0.342608 1 0 tcp 1040 ------- 0 1.0 0.0 20 97
+ 0.342608 0 1 ack 40 ------- 0 0.0 1.0 20 100
- 0.342608 0 1 ack 40 ------- 0 0.0 1.0 20 100
r 0.34344 1 0 tcp 1040 ------- 0 1.0 0.0 21 98
+ 0.34344 0 1 ack 40 ------- 0 0.0 1.0 21 101
- 0.34344 0 1 ack 40 ------- 0 0.0 1.0 21 101
r 0.34464 0 1 ack 40 ------- 0 0.0 1.0 20 100
+ 0.34464 1 0 tcp 1040 ------- 0 1.0 0.0 22 102
- 0.34464 1 0 tcp 1040 ------- 0 1.0 0.0 22 102
r 0.345472 0 1 ack 40 ------- 0 0.0 1.0 21 101
+ 0.345472 1 0 tcp 1040 ------- 0 1.0 0.0 23 103
- 0.345472 1 0 tcp 1040 ------- 0 1.0 0.0 23 103
r 0.347472 1 0 tcp 1040 ------- 0 1.0 0.0 22 102
+ 0.347472 0 1 ack 40 ------- 0 0.0 1.0 22 104
- 0.347472 0 1 ack 40 ------- 0 0.0 1.0 22 104
r 0.348304 1 0 tcp 1040 ------- 0 1.0 0.0 23 103
+ 0.348304 0 1 ack 40 ------- 0 0.0 1.0 23 105
- 0.348304 0 1 ack 40 ------- 0 0.0 1.0 23 105
r 0.349504 0 1 ack 40 ------- 0 0.0 1.0 22 104
+ 0.349504 1 0 tcp 1040 ------- 0 1.0 0.0 24 106
- 0.349504 1 0 tcp 1040 ------- 0 1.0 0.0 24 106
+ 0.349504 1 0 tcp 1040 ------- 0 1.0 0.0 25 107
r 0.350336 0 1 ack 40 ------- 0 0.0 1.0 23 105
+ 0.350336 1 0 tcp 1040 ------- 0 1.0 0.0 26 108
- 0.350336 1 0 tcp 1040 ------- 0 1.0 0.0 25 107
- 0.351168 1 0 tcp 1040 ------- 0 1.0 0.0 26 108
r 0.352336 1 0 tcp 1040 ------- 0 1.0 0.0 24 106
+ 0.352336 0 1 ack 40 ------- 0 0.0 1.0 24 109
- 0.352336 0 1 ack 40 ------- 0 0.0 1.0 24 109
r 0.353168 1 0 tcp 1040 ------- 0 1.0 0.0 25 107
+ 0.353168 0 1 ack 40 ------- 0 0.0 1.0 25 110
- 0.353168 0 1 ack 40 ------- 0 0.0 1.0 25 110
r 0.354 1 0 tcp 1040 ------- 0 1.0 0.0 26 108
+ 0.354 0 1 ack 40 ------- 0 0.0 1.0 26 111
- 0.354 0 1 ack 40 ------- 0 0.0 1.0 26 111
r 0.354368 0 1 ack 40 ------- 0 0.0 1.0 24 109
+ 0.354368 1 0 tcp 1040 ------- 0 1.0 0.0 27 112
- 0.354368 1 0 tcp 1040 ------- 0 1.0 0.0 27 112
r 0.3552 0 1 ack 40 ------- 0 0.0 1.0 25 110
+ 0.3552 1 0 tcp 1040 ------- 0 1.0 0.0 28 113
+ 0.3552 1 0 tcp 1040 ------- 0 1.0 0.0 29 114
- 0.3552 1 0 tcp 1040 ------- 0 1.0 0.0 28 113
r 0.356032 0 1 ack 40 ------- 0 0.0 1.0 26 111
+ 0.356032 1 0 tcp 1040 ------- 0 1.0 0.0 30 115
- 0.356032 1 0 tcp 1040 ------- 0 1.0 0.0 29 114
- 0.356864 1 0 tcp 1040 ------- 0 1.0 0.0 30 115
r 0.3572 1 0 tcp 1040 ------- 0 1.0 0.0 27 112
+ 0.3572 0 1 ack 40 ------- 0 0.0 1.0 27 116
- 0.3572 0 1 ack 40 ------- 0 0.0 1.0 27 116
r 0.358032 1 0 tcp 1040 ------- 0 1.0 0.0 28 113
+ 0.358032 0 1 ack 40 ------- 0 0.0 1.0 28 117
- 0.358032 0 1 ack 40 ------- 0 0.0 1.0 28 117
r 0.358864 1 0 tcp 1040 ------- 0 1.0 0.0 29 114
+ 0.358864 0 1 ack 40 ------- 0 0.0 1.0 29 118
- 0.358864 0 1 ack 40 ------- 0 0.0 1.0 29 118
r 0.359232 0 1 ack 40 ------- 0 0.0 1.0 27 116
+ 0.359232 1 0 tcp 1040 ------- 0 1.0 0.0 31 119
- 0.359232 1 0 tcp 1040 ------- 0 1.0 0.0 31 119
r 0.359696 1 0 tcp 1040 ------- 0 1.0 0.0 30 115
+ 0.359696 0 1 ack 40 ------- 0 0.0 1.0 30 120
- 0.359696 0 1 ack 40 ------- 0 0.0 1.0 30 120
r 0.360064 0 1 ack 40 ------- 0 0.0 1.0 28 117
+ 0.360064 1 0 tcp 1040 ------- 0 1.0 0.0 32 121
- 0.360064 1 0 tcp 1040 ------- 0 1.0 0.0 32 121
r 0.360896 0 1 ack 40 ------- 0 0.0 1.0 29 118
+ 0.360896 1 0 tcp 1040 ------- 0 1.0 0.0 33 122
- 0.360896 1 0 tcp 1040 ------- 0 1.0 0.0 33 122
r 0.361728 0 1 ack 40 ------- 0 0.0 1.0 30 120
+ 0.361728 1 0 tcp 1040 ------- 0 1.0 0.0 34 123
+ 0.361728 1 0 tcp 1040 ------- 0 1.0 0.0 35 124
- 0.361728 1 0 tcp 1040 ------- 0 1.0 0.0 34 123
r 0.362064 1 0 tcp 1040 ------- 0 1.0 0.0 31 119
+ 0.362064 0 1 ack 40 ------- 0 0.0 1.0 31 125
- 0.362064 0 1 ack 40 ------- 0 0.0 1.0 31 125
- 0.36256 1 0 tcp 1040 ------- 0 1.0 0.0 35 124
r 0.362896 1 0 tcp 1040 ------- 0 1.0 0.0 32 121
+ 0.362896 0 1 ack 40 ------- 0 0.0 1.0 32 126
- 0.362896 0 1 ack 40 ------- 0 0.0 1.0 32 126
r 0.363728 1 0 tcp 1040 ------- 0 1.0 0.0 33 122
+ 0.363728 0 1 ack 40 ------- 0 0.0 1.0 33 127
- 0.363728 0 1 ack 40 ------- 0 0.0 1.0 33 127
r 0.364096 0 1 ack 40 ------- 0 0.0 1.0 31 125
+ 0.364096 1 0 tcp 1040 ------- 0 1.0 0.0 36 128
- 0.364096 1 0 tcp 1040 ------- 0 1.0 0.0 36 128
r 0.36456 1 0 tcp 1040 ------- 0 1.0 0.0 34 123
+ 0.36456 0 1 ack 40 ------- 0 0.0 1.0 34 129
- 0.36456 0 1 ack 40 ------- 0 0.0 1.0 34 129
r 0.364928 0 1 ack 40 ------- 0 0.0 1.0 32 126
+ 0.364928 1 0 tcp 1040 ------- 0 1.0 0.0 37 130
- 0.364928 1 0 tcp 1040 ------- 0 1.0 0.0 37 130
r 0.365392 1 0 tcp 1040 ------- 0 1.0 0.0 35 124
+ 0.365392 0 1 ack 40 ------- 0 0.0 1.0 35 131
- 0.365392 0 1 ack 40 ------- 0 0.0 1.0 35 131
r 0.36576 0 1 ack 40 ------- 0 0.0 1.0 33 127
+ 0.36576 1 0 tcp 1040 ------- 0 1.0 0.0 38 132
- 0.36576 1 0 tcp 1040 ------- 0 1.0 0.0 38 132
r 0.366592 0 1 ack 40 ------- 0 0.0 1.0 34 129
+ 0.366592 1 0 tcp 1040 ------- 0 1.0 0.0 39 133
- 0.366592 1 0 tcp 1040 ------- 0 1.0 0.0 39 133
r 0.366928 1 0 tcp 1040 ------- 0 1.0 0.0 36 128
+ 0.366928 0 1 ack 40 ------- 0 0.0 1.0 36 134
- 0.366928 0 1 ack 40 ------- 0 0.0 1.0 36 134
r 0.367424 0 1 ack 40 ------- 0 0.0 1.0 35 131
+ 0.367424 1 0 tcp 1040 ------- 0 1.0 0.0 40 135
+ 0.367424 1 0 tcp 1040 ------- 0 1.0 0.0 41 136
- 0.367424 1 0 tcp 1040 ------- 0 1.0 0.0 40 135
r 0.36776 1 0 tcp 1040 ------- 0 1.0 0.0 37 130
+ 0.36776 0 1 ack 40 ------- 0 0.0 1.0 37 137
- 0.36776 0 1 ack 40 ------- 0 0.0 1.0 37 137
- 0.368256 1 0 tcp 1040 ------- 0 1.0 0.0 41 136
r 0.368592 1 0 tcp 1040 ------- 0 1.0 0.0 38 132
+ 0.368592 0 1 ack 40 ------- 0 0.0 1.0 38 138
- 0.368592 0 1 ack 40 ------- 0 0.0 1.0 38 138
r 0.36896 0 1 ack 40 ------- 0 0.0 1.0 36 134
+ 0.36896 1 0 tcp 1040 ------- 0 1.0 0.0 42 139
- 0.369088 1 0 tcp 1040 ------- 0 1.0 0.0 42 139
r 0.369424 1 0 tcp 1040 ------- 0 1.0 0.0 39 133
+ 0.369424 0 1 ack 40 ------- 0 0.0 1.0 39 140
- 0.369424 0 1 ack 40 ------- 0 0.0 1.0 39 140
r 0.369792 0 1 ack 40 ------- 0 0.0 1.0 37 137
+ 0.369792 1 0 tcp 1040 ------- 0 1.0 0.0 43 141
- 0.36992 1 0 tcp 1040 ------- 0 1.0 0.0 43 141
r 0.370256 1 0 tcp 1040 ------- 0 1.0 0.0 40 135
+ 0.370256 0 1 ack 40 ------- 0 0.0 1.0 40 142
- 0.370256 0 1 ack 40 ------- 0 0.0 1.0 40 142
r 0.370624 0 1 ack 40 ------- 0 0.0 1.0 38 138
+ 0.370624 1 0 tcp 1040 ------- 0 1.0 0.0 44 143
- 0.370752 1 0 tcp 1040 ------- 0 1.0 0.0 44 143
r 0.371088 1 0 tcp 1040 ------- 0 1.0 0.0 41 136
+ 0.371088 0 1 ack 40 ------- 0 0.0 1.0 41 144
- 0.371088 0 1 ack 40 ------- 0 0.0 1.0 41 144
r 0.371456 0 1 ack 40 ------- 0 0.0 1.0 39 140
+ 0.371456 1 0 tcp 1040 ------- 0 1.0 0.0 45 145
- 0.371584 1 0 tcp 1040 ------- 0 1.0 0.0 45 145
r 0.37192 1 0 tcp 1040 ------- 0 1.0 0.0 42 139
+ 0.37192 0 1 ack 40 ------- 0 0.0 1.0 42 146
- 0.37192 0 1 ack 40 ------- 0 0.0 1.0 42 146
r 0.372288 0 1 ack 40 ------- 0 0.0 1.0 40 142
+ 0.372288 1 0 tcp 1040 ------- 0 1.0 0.0 46 147
- 0.372416 1 0 tcp 1040 ------- 0 1.0 0.0 46 147
r 0.372752 1 0 tcp 1040 ------- 0 1.0 0.0 43 141
+ 0.372752 0 1 ack 40 ------- 0 0.0 1.0 43 148
- 0.372752 0 1 ack 40 ------- 0 0.0 1.0 43 148
r 0.37312 0 1 ack 40 ------- 0 0.0 1.0 41 144
+ 0.37312 1 0 tcp 1040 ------- 0 1.0 0.0 47 149
+ 0.37312 1 0 tcp 1040 ------- 0 1.0 0.0 48 150
- 0.373248 1 0 tcp 1040 ------- 0 1.0 0.0 47 149
r 0.373584 1 0 tcp 1040 ------- 0 1.0 0.0 44 143
+ 0.373584 0 1 ack 40 ------- 0 0.0 1.0 44 151
- 0.373584 0 1 ack 40 ------- 0 0.0 1.0 44 151
r 0.373952 0 1 ack 40 ------- 0 0.0 1.0 42 146
+ 0.373952 1 0 tcp 1040 ------- 0 1.0 0.0 49 152
- 0.37408 1 0 tcp 1040 ------- 0 1.0 0.0 48 150
r 0.374416 1 0 tcp 1040 ------- 0 1.0 0.0 45 145
+ 0.374416 0 1 ack 40 ------- 0 0.0 1.0 45 153
- 0.374416 0 1 ack 40 ------- 0 0.0 1.0 45 153
r 0.374784 0 1 ack 40 ------- 0 0.0 1.0 43 148
+ 0.374784 1 0 tcp 1040 ------- 0 1.0 0.0 50 154
- 0.374912 1 0 tcp 1040 ------- 0 1.0 0.0 49 152
r 0.375248 1 0 tcp 1040 ------- 0 1.0 0.0 46 147
+ 0.375248 0 1 ack 40 ------- 0 0.0 1.0 46 155
- 0.375248 0 1 ack 40 ------- 0 0.0 1.0 46 155
r 0.375616 0 1 ack 40 ------- 0 0.0 1.0 44 151
+ 0.375616 1 0 tcp 1040 ------- 0 1.0 0.0 51 156
- 0.375744 1 0 tcp 1040 ------- 0 1.0 0.0 50 154
r 0.37608 1 0 tcp 1040 ------- 0 1.0 0.0 47 149
+ 0.37608 0 1 ack 40 ------- 0 0.0 1.0 47 157
- 0.37608 0 1 ack 40 ------- 0 0.0 1.0 47 157
r 0.376448 0 1 ack 40 ------- 0 0.0 1.0 45 153
+ 0.376448 1 0 tcp 1040 ------- 0 1.0 0.0 52 158
- 0.376576 1 0 tcp 1040 ------- 0 1.0 0.0 51 156
r 0.376912 1 0 tcp 1040 ------- 0 1.0 0.0 48 150
+ 0.376912 0 1 ack 40 ------- 0 0.0 1.0 48 159
- 0.376912 0 1 ack 40 ------- 0 0.0 1.0 48 159
r 0.37728 0 1 ack 40 ------- 0 0.0 1.0 46 155
+ 0.37728 1 0 tcp 1040 ------- 0 1.0 0.0 53 160
- 0.377408 1 0 tcp 1040 ------- 0 1.0 0.0 52 158
r 0.377744 1 0 tcp 1040 ------- 0 1.0 0.0 49 152
+ 0.377744 0 1 ack 40 ------- 0 0.0 1.0 49 161
- 0.377744 0 1 ack 40 ------- 0 0.0 1.0 49 161
r 0.378112 0 1 ack 40 ------- 0 0.0 1.0 47 157
+ 0.378112 1 0 tcp 1040 ------- 0 1.0 0.0 54 162
- 0.37824 1 0 tcp 1040 ------- 0 1.0 0.0 53 160
r 0.378576 1 0 tcp 1040 ------- 0 1.0 0.0 50 154
+ 0.378576 0 1 ack 40 ------- 0 0.0 1.0 50 163
- 0.378576 0 1 ack 40 ------- 0 0.0 1.0 50 163
r 0.378944 0 1 ack 40 ------- 0 0.0 1.0 48 159
+ 0.378944 1 0 tcp 1040 ------- 0 1.0 0.0 55 164
- 0.379072 1 0 tcp 1040 ------- 0 1.0 0.0 54 162
r 0.379408 1 0 tcp 1040 ------- 0 1.0 0.0 51 156
+ 0.379408 0 1 ack 40 ------- 0 0.0 1.0 51 165
- 0.379408 0 1 ack 40 ------- 0 0.0 1.0 51 165
r 0.379776 0 1 ack 40 ------- 0 0.0 1.0 49 161
+ 0.379776 1 0 tcp 1040 ------- 0 1.0 0.0 56 166
+ 0.379776 1 0 tcp 1040 ------- 0 1.0 0.0 57 167
d 0.379776 1 0 tcp 1040 ------- 0 1.0 0.0 57 167
- 0.379904 1 0 tcp 1040 ------- 0 1.0 0.0 55 164
r 0.38024 1 0 tcp 1040 ------- 0 1.0 0.0 52 158
+ 0.38024 0 1 ack 40 ------- 0 0.0 1.0 52 168
- 0.38024 0 1 ack 40 ------- 0 0.0 1.0 52 168
r 0.380608 0 1 ack 40 ------- 0 0.0 1.0 50 163
+ 0.380608 1 0 tcp 1040 ------- 0 1.0 0.0 58 169
- 0.380736 1 0 tcp 1040 ------- 0 1.0 0.0 56 166
r 0.381072 1 0 tcp 1040 ------- 0 1.0 0.0 53 160
+ 0.381072 0 1 ack 40 ------- 0 0.0 1.0 53 170
- 0.381072 0 1 ack 40 ------- 0 0.0 1.0 53 170
r 0.38144 0 1 ack 40 ------- 0 0.0 1.0 51 165
+ 0.38144 1 0 tcp 1040 ------- 0 1.0 0.0 59 171
- 0.381568 1 0 tcp 1040 ------- 0 1.0 0.0 58 169
r 0.381904 1 0 tcp 1040 ------- 0 1.0 0.0 54 162
+ 0.381904 0 1 ack 40 ------- 0 0.0 1.0 54 172
- 0.381904 0 1 ack 40 ------- 0 0.0 1.0 54 172
r 0.382272 0 1 ack 40 ------- 0 0.0 1.0 52 168
+ 0.382272 1 0 tcp 1040 ------- 0 1.0 0.0 60 173
- 0.3824 1 0 tcp 1040 ------- 0 1.0 0.0 59 171
r 0.382736 1 0 tcp 1040 ------- 0 1.0 0.0 55 164
+ 0.382736 0 1 ack 40 ------- 0 0.0 1.0 55 174
- 0.382736 0 1 ack 40 ------- 0 0.0 1.0 55 174
r 0.383104 0 1 ack 40 ------- 0 0.0 1.0 53 170
+ 0.383104 1 0 tcp 1040 ------- 0 1.0 0.0 61 175
- 0.383232 1 0 tcp 1040 ------- 0 1.0 0.0 60 173
r 0.383568 1 0 tcp 1040 ------- 0 1.0 0.0 56 166
+ 0.383568 0 1 ack 40 ------- 0 0.0 1.0 56 176
- 0.383568 0 1 ack 40 ------- 0 0.0 1.0 56 176
r 0.383936 0 1 ack 40 ------- 0 0.0 1.0 54 172
+ 0.383936 1 0 tcp 1040 ------- 0 1.0 0.0 62 177
- 0.384064 1 0 tcp 1040 ------- 0 1.0 0.0 61 175
r 0.3844 1 0 tcp 1040 ------- 0 1.0 0.0 58 169
+ 0.3844 0 1 ack 40 ------- 0 0.0 1.0 56 178
- 0.3844 0 1 ack 40 ------- 0 0.0 1.0 56 178
r 0.384768 0 1 ack 40 ------- 0 0.0 1.0 55 174
+ 0.384768 1 0 tcp 1040 ------- 0 1.0 0.0 63 179
- 0.384896 1 0 tcp 1040 ------- 0 1.0 0.0 62 177
r 0.385232 1 0 tcp 1040 ------- 0 1.0 0.0 59 171
+ 0.385232 0 1 ack 40 ------- 0 0.0 1.0 56 180
- 0.385232 0 1 ack 40 ------- 0 0.0 1.0 56 180
r 0.3856 0 1 ack 40 ------- 0 0.0 1.0 56 176
+ 0.3856 1 0 tcp 1040 ------- 0 1.0 0.0 64 181
- 0.385728 1 0 tcp 1040 ------- 0 1.0 0.0 63 179
r 0.386064 1 0 tcp 1040 ------- 0 1.0 0.0 60 173
+ 0.386064 0 1 ack 40 ------- 0 0.0 1.0 56 182
- 0.386064 0 1 ack 40 ------- 0 0.0 1.0 56 182
r 0.386432 0 1 ack 40 ------- 0 0.0 1.0 56 178
+ 0.386432 1 0 tcp 1040 ------- 0 1.0 0.0 65 183
- 0.38656 1 0 tcp 1040 ------- 0 1.0 0.0 64 181
r 0.386896 1 0 tcp 1040 ------- 0 1.0 0.0 61 175
+ 0.386896 0 1 ack 40 ------- 0 0.0 1.0 56 184
- 0.386896 0 1 ack 40 ------- 0 0.0 1.0 56 184
r 0.387264 0 1 ack 40 ------- 0 0.0 1.0 56 180
+ 0.387264 1 0 tcp 1040 ------- 0 1.0 0.0 66 185
- 0.387392 1 0 tcp 1040 ------- 0 1.0 0.0 65 183
r 0.387728 1 0 tcp 1040 ------- 0 1.0 0.0 62 177
+ 0.387728 0 1 ack 40 ------- 0 0.0 1.0 56 186
- 0.387728 0 1 ack 40 ------- 0 0.0 1.0 56 186
r 0.388096 0 1 ack 40 ------- 0 0.0 1.0 56 182
+ 0.388096 1 0 tcp 1040 ---A--- 0 1.0 0.0 57 187
- 0.388224 1 0 tcp 1040 ------- 0 1.0 0.0 66 185
r 0.38856 1 0 tcp 1040 ------- 0 1.0 0.0 63 179
+ 0.38856 0 1 ack 40 ------- 0 0.0 1.0 56 188
- 0.38856 0 1 ack 40 ------- 0 0.0 1.0 56 188
r 0.388928 0 1 ack 40 ------- 0 0.0 1.0 56 184
- 0.389056 1 0 tcp 1040 ---A--- 0 1.0 0.0 57 187
r 0.389392 1 0 tcp 1040 ------- 0 1.0 0.0 64 181
+ 0.389392 0 1 ack 40 ------- 0 0.0 1.0 56 189
- 0.389392 0 1 ack 40 ------- 0 0.0 1.0 56 189
r 0.38976 0 1 ack 40 ------- 0 0.0 1.0 56 186
r 0.390224 1 0 tcp 1040 ------- 0 1.0 0.0 65 183
+ 0.390224 0 1 ack 40 ------- 0 0.0 1.0 56 190
- 0.390224 0 1 ack 40 ------- 0 0.0 1.0 56 190
r 0.390592 0 1 ack 40 ------- 0 0.0 1.0 56 188
r 0.391056 1 0 tcp 1040 ------- 0 1.0 0.0 66 185
+ 0.391056 0 1 ack 40 ------- 0 0.0 1.0 56 191
- 0.391056 0 1 ack 40 ------- 0 0.0 1.0 56 191
r 0.391424 0 1 ack 40 ------- 0 0.0 1.0 56 189
r 0.391888 1 0 tcp 1040 ---A--- 0 1.0 0.0 57 187
+ 0.391888 0 1 ack 40 ------- 0 0.0 1.0 66 192
- 0.391888 0 1 ack 40 ------- 0 0.0 1.0 66 192
r 0.392256 0 1 ack 40 ------- 0 0.0 1.0 56 190
r 0.393088 0 1 ack 40 ------- 0 0.0 1.0 56 191
r 0.39392 0 1 ack 40 ------- 0 0.0 1.0 66 192
+ 0.39392 1 0 tcp 1040 ------- 0 1.0 0.0 67 193
- 0.39392 1 0 tcp 1040 ------- 0 1.0 0.0 67 193
+ 0.39392 1 0 tcp 1040 ------- 0 1.0 0.0 68 194
- 0.394752 1 0 tcp 1040 ------- 0 1.0 0.0 68 194
r 0.396752 1 0 tcp 1040 ------- 0 1.0 0.0 67 193
+ 0.396752 0 1 ack 40 ------- 0 0.0 1.0 67 195
- 0.396752 0 1 ack 40 ------- 0 0.0 1.0 67 195
r 0.397584 1 0 tcp 1040 ------- 0 1.0 0.0 68 194
+ 0.397584 0 1 ack 40 ------- 0 0.0 1.0 68 196
- 0.397584 0 1 ack 40 ------- 0 0.0 1.0 68 196
r 0.398784 0 1 ack 40 ------- 0 0.0 1.0 67 195
+ 0.398784 1 0 tcp 1040 ------- 0 1.0 0.0 69 197
- 0.398784 1 0 tcp 1040 ------- 0 1.0 0.0 69 197
+ 0.398784 1 0 tcp 1040 ------- 0 1.0 0.0 70 198
r 0.399616 0 1 ack 40 ------- 0 0.0 1.0 68 196
+ 0.399616 1 0 tcp 1040 ------- 0 1.0 0.0 71 199
+ 0.399616 1 0 tcp 1040 ------- 0 1.0 0.0 72 200
d 0.399616 1 0 tcp 1040 ------- 0 1.0 0.0 72 200
- 0.399616 1 0 tcp 1040 ------- 0 1.0 0.0 70 198
- 0.400448 1 0 tcp 1040 ------- 0 1.0 0.0 71 199
r 0.401616 1 0 tcp 1040 ------- 0 1.0 0.0 69 197
+ 0.401616 0 1 ack 40 ------- 0 0.0 1.0 69 201
- 0.401616 0 1 ack 40 ------- 0 0.0 1.0 69 201
r 0.402448 1 0 tcp 1040 ------- 0 1.0 0.0 70 198
+ 0.402448 0 1 ack 40 ------- 0 0.0 1.0 70 202
- 0.402448 0 1 ack 40 ------- 0 0.0 1.0 70 202
r 0.40328 1 0 tcp 1040 ------- 0 1.0 0.0 71 199
+ 0.40328 0 1 ack 40 ------- 0 0.0 1.0 71 203
- 0.40328 0 1 ack 40 ------- 0 0.0 1.0 71 203
r 0.403648 0 1 ack 40 ------- 0 0.0 1.0 69 201
+ 0.403648 1 0 tcp 1040 ------- 0 1.0 0.0 73 204
- 0.403648 1 0 tcp 1040 ------- 0 1.0 0.0 73 204
r 0.40448 0 1 ack 40 ------- 0 0.0 1.0 70 202
+ 0.40448 1 0 tcp 1040 ------- 0 1.0 0.0 74 205
- 0.40448 1 0 tcp 1040 ------- 0 1.0 0.0 74 205
r 0.405312 0 1 ack 40 ------- 0 0.0 1.0 71 203
+ 0.405312 1 0 tcp 1040 ------- 0 1.0 0.0 75 206
- 0.405312 1 0 tcp 1040 ------- 0 1.0 0.0 75 206
r 0.40648 1 0 tcp 1040 ------- 0 1.0 0.0 73 204
+ 0.40648 0 1 ack 40 ------- 0 0.0 1.0 71 207
- 0.40648 0 1 ack 40 ------- 0 0.0 1.0 71 207
r 0.407312 1 0 tcp 1040 ------- 0 1.0 0.0 74 205
+ 0.407312 0 1 ack 40 ------- 0 0.0 1.0 71 208
- 0.407312 0 1 ack 40 ------- 0 0.0 1.0 71 208
r 0.408144 1 0 tcp 1040 ------- 0 1.0 0.0 75 206
+ 0.408144 0 1 ack 40 ------- 0 0.0 1.0 71 209
- 0.408144 0 1 ack 40 ------- 0 0.0 1.0 71 209
r 0.408512 0 1 ack 40 ------- 0 0.0 1.0 71 207
+ 0.408512 1 0 tcp 1040 ------- 0 1.0 0.0 76 210
- 0.408512 1 0 tcp 1040 ------- 0 1.0 0.0 76 210
r 0.409344 0 1 ack 40 ------- 0 0.0 1.0 71 208
+ 0.409344 1 0 tcp 1040 ------- 0 1.0 0.0 77 211
- 0.409344 1 0 tcp 1040 ------- 0 1.0 0.0 77 211
r 0.410176 0 1 ack 40 ------- 0 0.0 1.0 71 209
+ 0.410176 1 0 tcp 1040 ---A--- 0 1.0 0.0 72 212
- 0.410176 1 0 tcp 1040 ---A--- 0 1.0 0.0 72 212
r 0.411344 1 0 tcp 1040 ------- 0 1.0 0.0 76 210
+ 0.411344 0 1 ack 40 ------- 0 0.0 1.0 71 213
- 0.411344 0 1 ack 40 ------- 0 0.0 1.0 71 213
r 0.412176 1 0 tcp 1040 ------- 0 1.0 0.0 77 211
+ 0.412176 0 1 ack 40 ------- 0 0.0 1.0 71 214
- 0.412176 0 1 ack 40 ------- 0 0.0 1.0 71 214
r 0.413008 1 0 tcp 1040 ---A--- 0 1.0 0.0 72 212
+ 0.413008 0 1 ack 40 ------- 0 0.0 1.0 77 215
- 0.413008 0 1 ack 40 ------- 0 0.0 1.0 77 215
r 0.413376 0 1 ack 40 ------- 0 0.0 1.0 71 213
r 0.414208 0 1 ack 40 ------- 0 0.0 1.0 71 214
r 0.41504 0 1 ack 40 ------- 0 0.0 1.0 77 215