+ 0.1 0 2 tcp 40 ------- 0 0.0 3.0 0 0
- 0.1 0 2 tcp 40 ------- 0 0.0 3.0 0 0
+ 0.1 1 2 cbr 210 ------- 0 1.0 3.1 0 1
- 0.1 1 2 cbr 210 ------- 0 1.0 3.1 0 1
+ 0.10375 1 2 cbr 210 ------- 0 1.0 3.1 1 2
- 0.10375 1 2 cbr 210 ------- 0 1.0 3.1 1 2
+ 0.1075 1 2 cbr 210 ------- 0 1.0 3.1 2 3
- 0.1075 1 2 cbr 210 ------- 0 1.0 3.1 2 3
r 0.110064 0 2 tcp 40 ------- 0 0.0 3.0 0 0
+ 0.110064 2 3 tcp 40 ------- 0 0.0 3.0 0 0
- 0.110064 2 3 tcp 40 ------- 0 0.0 3.0 0 0
r 0.110336 1 2 cbr 210 ------- 0 1.0 3.1 0 1
+ 0.110336 2 3 cbr 210 ------- 0 1.0 3.1 0 1
- 0.110336 2 3 cbr 210 ------- 0 1.0 3.1 0 1
+ 0.11125 1 2 cbr 210 ------- 0 1.0 3.1 3 4
- 0.11125 1 2 cbr 210 ------- 0 1.0 3.1 3 4
r 0.114086 1 2 cbr 210 ------- 0 1.0 3.1 1 2
+ 0.114086 2 3 cbr 210 ------- 0 1.0 3.1 1 2
- 0.114086 2 3 cbr 210 ------- 0 1.0 3.1 1 2
+ 0.115 1 2 cbr 210 ------- 0 1.0 3.1 4 5
- 0.115 1 2 cbr 210 ------- 0 1.0 3.1 4 5
r 0.117836 1 2 cbr 210 ------- 0 1.0 3.1 2 3
+ 0.117836 2 3 cbr 210 ------- 0 1.0 3.1 2 3
- 0.117836 2 3 cbr 210 ------- 0 1.0 3.1 2 3
+ 0.11875 1 2 cbr 210 ------- 0 1.0 3.1 5 6
- 0.11875 1 2 cbr 210 ------- 0 1.0 3.1 5 6
r 0.120128 2 3 tcp 40 ------- 0 0.0 3.0 0 0
+ 0.120128 3 2 ack 40 ------- 0 3.0 0.0 0 7
- 0.120128 3 2 ack 40 ------- 0 3.0 0.0 0 7
r 0.120672 2 3 cbr 210 ------- 0 1.0 3.1 0 1
r 0.121586 1 2 cbr 210 ------- 0 1.0 3.1 3 4
+ 0.121586 2 3 cbr 210 ------- 0 1.0 3.1 3 4
- 0.121586 2 3 cbr 210 ------- 0 1.0 3.1 3 4
+ 0.1225 1 2 cbr 210 ------- 0 1.0 3.1 6 8
- 0.1225 1 2 cbr 210 ------- 0 1.0 3.1 6 8
r 0.124422 2 3 cbr 210 ------- 0 1.0 3.1 1 2
r 0.125336 1 2 cbr 210 ------- 0 1.0 3.1 4 5
+ 0.125336 2 3 cbr 210 ------- 0 1.0 3.1 4 5
- 0.125336 2 3 cbr 210 ------- 0 1.0 3.1 4 5
+ 0.12625 1 2 cbr 210 ------- 0 1.0 3.1 7 9
- 0.12625 1 2 cbr 210 ------- 0 1.0 3.1 7 9
r 0.128172 2 3 cbr 210 ------- 0 1.0 3.1 2 3
r 0.129086 1 2 cbr 210 ------- 0 1.0 3.1 5 6
+ 0.129086 2 3 cbr 210 ------- 0 1.0 3.1 5 6
- 0.129086 2 3 cbr 210 ------- 0 1.0 3.1 5 6
+ 0.13 1 2 cbr 210 ------- 0 1.0 3.1 8 10
- 0.13 1 2 cbr 210 ------- 0 1.0 3.1 8 10
r 0.130192 3 2 ack 40 ------- 0 3.0 0.0 0 7
+ 0.130192 2 0 ack 40 ------- 0 3.0 0.0 0 7
- 0.130192 2 0 ack 40 ------- 0 3.0 0.0 0 7
r 0.131922 2 3 cbr 210 ------- 0 1.0 3.1 3 4
r 0.132836 1 2 cbr 210 ------- 0 1.0 3.1 6 8
+ 0.132836 2 3 cbr 210 ------- 0 1.0 3.1 6 8
- 0.132836 2 3 cbr 210 ------- 0 1.0 3.1 6 8
+ 0.13375 1 2 cbr 210 ------- 0 1.0 3.1 9 11
- 0.13375 1 2 cbr 210 ------- 0 1.0 3.1 9 11
r 0.135672 2 3 cbr 210 ------- 0 1.0 3.1 4 5
r 0.136586 1 2 cbr 210 ------- 0 1.0 3.1 7 9
+ 0.136586 2 3 cbr 210 ------- 0 1.0 3.1 7 9
- 0.136586 2 3 cbr 210 ------- 0 1.0 3.1 7 9
+ 0.1375 1 2 cbr 210 ------- 0 1.0 3.1 10 12
- 0.1375 1 2 cbr 210 ------- 0 1.0 3.1 10 12
r 0.139422 2 3 cbr 210 ------- 0 1.0 3.1 5 6
r 0.140256 2 0 ack 40 ------- 0 3.0 0.0 0 7
+ 0.140256 0 2 tcp 1040 ------- 0 0.0 3.0 1 13
- 0.140256 0 2 tcp 1040 ------- 0 0.0 3.0 1 13
+ 0.140256 0 2 tcp 1040 ------- 0 0.0 3.0 2 14
r 0.140336 1 2 cbr 210 ------- 0 1.0 3.1 8 10
+ 0.140336 2 3 cbr 210 ------- 0 1.0 3.1 8 10
- 0.140336 2 3 cbr 210 ------- 0 1.0 3.1 8 10
+ 0.14125 1 2 cbr 210 ------- 0 1.0 3.1 11 15
- 0.14125 1 2 cbr 210 ------- 0 1.0 3.1 11 15
- 0.14192 0 2 tcp 1040 ------- 0 0.0 3.0 2 14
r 0.143172 2 3 cbr 210 ------- 0 1.0 3.1 6 8
r 0.144086 1 2 cbr 210 ------- 0 1.0 3.1 9 11
+ 0.144086 2 3 cbr 210 ------- 0 1.0 3.1 9 11
- 0.144086 2 3 cbr 210 ------- 0 1.0 3.1 9 11
+ 0.145 1 2 cbr 210 ------- 0 1.0 3.1 12 16
- 0.145 1 2 cbr 210 ------- 0 1.0 3.1 12 16
r 0.146922 2 3 cbr 210 ------- 0 1.0 3.1 7 9
r 0.147836 1 2 cbr 210 ------- 0 1.0 3.1 10 12
+ 0.147836 2 3 cbr 210 ------- 0 1.0 3.1 10 12
- 0.147836 2 3 cbr 210 ------- 0 1.0 3.1 10 12
+ 0.14875 1 2 cbr 210 ------- 0 1.0 3.1 13 17
- 0.14875 1 2 cbr 210 ------- 0 1.0 3.1 13 17
r 0.150672 2 3 cbr 210 ------- 0 1.0 3.1 8 10
r 0.151586 1 2 cbr 210 ------- 0 1.0 3.1 11 15
+ 0.151586 2 3 cbr 210 ------- 0 1.0 3.1 11 15
- 0.151586 2 3 cbr 210 ------- 0 1.0 3.1 11 15
r 0.15192 0 2 tcp 1040 ------- 0 0.0 3.0 1 13
+ 0.15192 2 3 tcp 1040 ------- 0 0.0 3.0 1 13
- 0.151922 2 3 tcp 1040 ------- 0 0.0 3.0 1 13
+ 0.1525 1 2 cbr 210 ------- 0 1.0 3.1 14 18
- 0.1525 1 2 cbr 210 ------- 0 1.0 3.1 14 18
r 0.153584 0 2 tcp 1040 ------- 0 0.0 3.0 2 14
+ 0.153584 2 3 tcp 1040 ------- 0 0.0 3.0 2 14
- 0.153586 2 3 tcp 1040 ------- 0 0.0 3.0 2 14
r 0.154422 2 3 cbr 210 ------- 0 1.0 3.1 9 11
r 0.155336 1 2 cbr 210 ------- 0 1.0 3.1 12 16
+ 0.155336 2 3 cbr 210 ------- 0 1.0 3.1 12 16
- 0.155336 2 3 cbr 210 ------- 0 1.0 3.1 12 16
+ 0.15625 1 2 cbr 210 ------- 0 1.0 3.1 15 19
- 0.15625 1 2 cbr 210 ------- 0 1.0 3.1 15 19
r 0.158172 2 3 cbr 210 ------- 0 1.0 3.1 10 12
r 0.159086 1 2 cbr 210 ------- 0 1.0 3.1 13 17
+ 0.159086 2 3 cbr 210 ------- 0 1.0 3.1 13 17
- 0.159086 2 3 cbr 210 ------- 0 1.0 3.1 13 17
+ 0.16 1 2 cbr 210 ------- 0 1.0 3.1 16 20
- 0.16 1 2 cbr 210 ------- 0 1.0 3.1 16 20
r 0.161922 2 3 cbr 210 ------- 0 1.0 3.1 11 15
r 0.162836 1 2 cbr 210 ------- 0 1.0 3.1 14 18
+ 0.162836 2 3 cbr 210 ------- 0 1.0 3.1 14 18
- 0.162836 2 3 cbr 210 ------- 0 1.0 3.1 14 18
r 0.163586 2 3 tcp 1040 ------- 0 0.0 3.0 1 13
+ 0.163586 3 2 ack 40 ------- 0 3.0 0.0 1 21
- 0.163586 3 2 ack 40 ------- 0 3.0 0.0 1 21
+ 0.16375 1 2 cbr 210 ------- 0 1.0 3.1 17 22
- 0.16375 1 2 cbr 210 ------- 0 1.0 3.1 17 22
r 0.16525 2 3 tcp 1040 ------- 0 0.0 3.0 2 14
+ 0.16525 3 2 ack 40 ------- 0 3.0 0.0 2 23
- 0.16525 3 2 ack 40 ------- 0 3.0 0.0 2 23
r 0.165672 2 3 cbr 210 ------- 0 1.0 3.1 12 16
r 0.166586 1 2 cbr 210 ------- 0 1.0 3.1 15 19
+ 0.166586 2 3 cbr 210 ------- 0 1.0 3.1 15 19
- 0.166586 2 3 cbr 210 ------- 0 1.0 3.1 15 19
+ 0.1675 1 2 cbr 210 ------- 0 1.0 3.1 18 24
- 0.1675 1 2 cbr 210 ------- 0 1.0 3.1 18 24
r 0.169422 2 3 cbr 210 ------- 0 1.0 3.1 13 17
r 0.170336 1 2 cbr 210 ------- 0 1.0 3.1 16 20
+ 0.170336 2 3 cbr 210 ------- 0 1.0 3.1 16 20
- 0.170336 2 3 cbr 210 ------- 0 1.0 3.1 16 20
+ 0.17125 1 2 cbr 210 ------- 0 1.0 3.1 19 25
- 0.17125 1 2 cbr 210 ------- 0 1.0 3.1 19 25
r 0.173172 2 3 cbr 210 ------- 0 1.0 3.1 14 18
r 0.17365 3 2 ack 40 ------- 0 3.0 0.0 1 21
+ 0.17365 2 0 ack 40 ------- 0 3.0 0.0 1 21
- 0.17365 2 0 ack 40 ------- 0 3.0 0.0 1 21
r 0.174086 1 2 cbr 210 ------- 0 1.0 3.1 17 22
+ 0.174086 2 3 cbr 210 ------- 0 1.0 3.1 17 22
- 0.174086 2 3 cbr 210 ------- 0 1.0 3.1 17 22
+ 0.175 1 2 cbr 210 ------- 0 1.0 3.1 20 26
- 0.175 1 2 cbr 210 ------- 0 1.0 3.1 20 26
r 0.175314 3 2 ack 40 ------- 0 3.0 0.0 2 23
+ 0.175314 2 0 ack 40 ------- 0 3.0 0.0 2 23
- 0.175314 2 0 ack 40 ------- 0 3.0 0.0 2 23
r 0.176922 2 3 cbr 210 ------- 0 1.0 3.1 15 19
r 0.177836 1 2 cbr 210 ------- 0 1.0 3.1 18 24
+ 0.177836 2 3 cbr 210 ------- 0 1.0 3.1 18 24
- 0.177836 2 3 cbr 210 ------- 0 1.0 3.1 18 24
+ 0.17875 1 2 cbr 210 ------- 0 1.0 3.1 21 27
- 0.17875 1 2 cbr 210 ------- 0 1.0 3.1 21 27
r 0.180672 2 3 cbr 210 ------- 0 1.0 3.1 16 20
r 0.181586 1 2 cbr 210 ------- 0 1.0 3.1 19 25
+ 0.181586 2 3 cbr 210 ------- 0 1.0 3.1 19 25
- 0.181586 2 3 cbr 210 ------- 0 1.0 3.1 19 25
+ 0.1825 1 2 cbr 210 ------- 0 1.0 3.1 22 28
- 0.1825 1 2 cbr 210 ------- 0 1.0 3.1 22 28
r 0.183714 2 0 ack 40 ------- 0 3.0 0.0 1 21
+ 0.183714 0 2 tcp 1040 ------- 0 0.0 3.0 3 29
- 0.183714 0 2 tcp 1040 ------- 0 0.0 3.0 3 29
+ 0.183714 0 2 tcp 1040 ------- 0 0.0 3.0 4 30
r 0.184422 2 3 cbr 210 ------- 0 1.0 3.1 17 22
r 0.185336 1 2 cbr 210 ------- 0 1.0 3.1 20 26
+ 0.185336 2 3 cbr 210 ------- 0 1.0 3.1 20 26
- 0.185336 2 3 cbr 210 ------- 0 1.0 3.1 20 26
r 0.185378 2 0 ack 40 ------- 0 3.0 0.0 2 23
+ 0.185378 0 2 tcp 1040 ------- 0 0.0 3.0 5 31
+ 0.185378 0 2 tcp 1040 ------- 0 0.0 3.0 6 32
d 0.185378 0 2 tcp 1040 ------- 0 0.0 3.0 6 32
- 0.185378 0 2 tcp 1040 ------- 0 0.0 3.0 4 30
+ 0.18625 1 2 cbr 210 ------- 0 1.0 3.1 23 33
- 0.18625 1 2 cbr 210 ------- 0 1.0 3.1 23 33
- 0.187042 0 2 tcp 1040 ------- 0 0.0 3.0 5 31
r 0.188172 2 3 cbr 210 ------- 0 1.0 3.1 18 24
r 0.189086 1 2 cbr 210 ------- 0 1.0 3.1 21 27
+ 0.189086 2 3 cbr 210 ------- 0 1.0 3.1 21 27
- 0.189086 2 3 cbr 210 ------- 0 1.0 3.1 21 27
+ 0.19 1 2 cbr 210 ------- 0 1.0 3.1 24 34
- 0.19 1 2 cbr 210 ------- 0 1.0 3.1 24 34
r 0.191922 2 3 cbr 210 ------- 0 1.0 3.1 19 25
r 0.192836 1 2 cbr 210 ------- 0 1.0 3.1 22 28
+ 0.192836 2 3 cbr 210 ------- 0 1.0 3.1 22 28
- 0.192836 2 3 cbr 210 ------- 0 1.0 3.1 22 28
+ 0.19375 1 2 cbr 210 ------- 0 1.0 3.1 25 35
- 0.19375 1 2 cbr 210 ------- 0 1.0 3.1 25 35
r 0.195378 0 2 tcp 1040 ------- 0 0.0 3.0 3 29
+ 0.195378 2 3 tcp 1040 ------- 0 0.0 3.0 3 29
- 0.195378 2 3 tcp 1040 ------- 0 0.0 3.0 3 29
r 0.195672 2 3 cbr 210 ------- 0 1.0 3.1 20 26
r 0.196586 1 2 cbr 210 ------- 0 1.0 3.1 23 33
+ 0.196586 2 3 cbr 210 ------- 0 1.0 3.1 23 33
r 0.197042 0 2 tcp 1040 ------- 0 0.0 3.0 4 30
+ 0.197042 2 3 tcp 1040 ------- 0 0.0 3.0 4 30
- 0.197042 2 3 cbr 210 ------- 0 1.0 3.1 23 33
- 0.197378 2 3 tcp 1040 ------- 0 0.0 3.0 4 30
+ 0.1975 1 2 cbr 210 ------- 0 1.0 3.1 26 36
- 0.1975 1 2 cbr 210 ------- 0 1.0 3.1 26 36
r 0.198706 0 2 tcp 1040 ------- 0 0.0 3.0 5 31
+ 0.198706 2 3 tcp 1040 ------- 0 0.0 3.0 5 31
- 0.199042 2 3 tcp 1040 ------- 0 0.0 3.0 5 31
r 0.199422 2 3 cbr 210 ------- 0 1.0 3.1 21 27
r 0.200336 1 2 cbr 210 ------- 0 1.0 3.1 24 34
+ 0.200336 2 3 cbr 210 ------- 0 1.0 3.1 24 34
- 0.200706 2 3 cbr 210 ------- 0 1.0 3.1 24 34
+ 0.20125 1 2 cbr 210 ------- 0 1.0 3.1 27 37
- 0.20125 1 2 cbr 210 ------- 0 1.0 3.1 27 37
r 0.203172 2 3 cbr 210 ------- 0 1.0 3.1 22 28
r 0.204086 1 2 cbr 210 ------- 0 1.0 3.1 25 35
+ 0.204086 2 3 cbr 210 ------- 0 1.0 3.1 25 35
- 0.204086 2 3 cbr 210 ------- 0 1.0 3.1 25 35
+ 0.205 1 2 cbr 210 ------- 0 1.0 3.1 28 38
- 0.205 1 2 cbr 210 ------- 0 1.0 3.1 28 38
r 0.207042 2 3 tcp 1040 ------- 0 0.0 3.0 3 29
+ 0.207042 3 2 ack 40 ------- 0 3.0 0.0 3 39
- 0.207042 3 2 ack 40 ------- 0 3.0 0.0 3 39
r 0.207378 2 3 cbr 210 ------- 0 1.0 3.1 23 33
r 0.207836 1 2 cbr 210 ------- 0 1.0 3.1 26 36
+ 0.207836 2 3 cbr 210 ------- 0 1.0 3.1 26 36
- 0.207836 2 3 cbr 210 ------- 0 1.0 3.1 26 36
+ 0.20875 1 2 cbr 210 ------- 0 1.0 3.1 29 40
- 0.20875 1 2 cbr 210 ------- 0 1.0 3.1 29 40
r 0.209042 2 3 tcp 1040 ------- 0 0.0 3.0 4 30
+ 0.209042 3 2 ack 40 ------- 0 3.0 0.0 4 41
- 0.209042 3 2 ack 40 ------- 0 3.0 0.0 4 41
r 0.210706 2 3 tcp 1040 ------- 0 0.0 3.0 5 31
+ 0.210706 3 2 ack 40 ------- 0 3.0 0.0 5 42
- 0.210706 3 2 ack 40 ------- 0 3.0 0.0 5 42
r 0.211042 2 3 cbr 210 ------- 0 1.0 3.1 24 34
r 0.211586 1 2 cbr 210 ------- 0 1.0 3.1 27 37
+ 0.211586 2 3 cbr 210 ------- 0 1.0 3.1 27 37
- 0.211586 2 3 cbr 210 ------- 0 1.0 3.1 27 37
+ 0.2125 1 2 cbr 210 ------- 0 1.0 3.1 30 43
- 0.2125 1 2 cbr 210 ------- 0 1.0 3.1 30 43
r 0.214422 2 3 cbr 210 ------- 0 1.0 3.1 25 35
r 0.215336 1 2 cbr 210 ------- 0 1.0 3.1 28 38
+ 0.215336 2 3 cbr 210 ------- 0 1.0 3.1 28 38
- 0.215336 2 3 cbr 210 ------- 0 1.0 3.1 28 38
+ 0.21625 1 2 cbr 210 ------- 0 1.0 3.1 31 44
- 0.21625 1 2 cbr 210 ------- 0 1.0 3.1 31 44
r 0.217106 3 2 ack 40 ------- 0 3.0 0.0 3 39
+ 0.217106 2 0 ack 40 ------- 0 3.0 0.0 3 39
- 0.217106 2 0 ack 40 ------- 0 3.0 0.0 3 39
r 0.218172 2 3 cbr 210 ------- 0 1.0 3.1 26 36
r 0.219086 1 2 cbr 210 ------- 0 1.0 3.1 29 40
+ 0.219086 2 3 cbr 210 ------- 0 1.0 3.1 29 40
- 0.219086 2 3 cbr 210 ------- 0 1.0 3.1 29 40
r 0.219106 3 2 ack 40 ------- 0 3.0 0.0 4 41
+ 0.219106 2 0 ack 40 ------- 0 3.0 0.0 4 41
- 0.219106 2 0 ack 40 ------- 0 3.0 0.0 4 41
+ 0.22 1 2 cbr 210 ------- 0 1.0 3.1 32 45
- 0.22 1 2 cbr 210 ------- 0 1.0 3.1 32 45
r 0.22077 3 2 ack 40 ------- 0 3.0 0.0 5 42
+ 0.22077 2 0 ack 40 ------- 0 3.0 0.0 5 42
- 0.22077 2 0 ack 40 ------- 0 3.0 0.0 5 42
r 0.221922 2 3 cbr 210 ------- 0 1.0 3.1 27 37
r 0.222836 1 2 cbr 210 ------- 0 1.0 3.1 30 43
+ 0.222836 2 3 cbr 210 ------- 0 1.0 3.1 30 43
- 0.222836 2 3 cbr 210 ------- 0 1.0 3.1 30 43
+ 0.22375 1 2 cbr 210 ------- 0 1.0 3.1 33 46
- 0.22375 1 2 cbr 210 ------- 0 1.0 3.1 33 46
r 0.225672 2 3 cbr 210 ------- 0 1.0 3.1 28 38
r 0.226586 1 2 cbr 210 ------- 0 1.0 3.1 31 44
+ 0.226586 2 3 cbr 210 ------- 0 1.0 3.1 31 44
- 0.226586 2 3 cbr 210 ------- 0 1.0 3.1 31 44
r 0.22717 2 0 ack 40 ------- 0 3.0 0.0 3 39
+ 0.22717 0 2 tcp 1040 ------- 0 0.0 3.0 7 47
- 0.22717 0 2 tcp 1040 ------- 0 0.0 3.0 7 47
+ 0.22717 0 2 tcp 1040 ------- 0 0.0 3.0 8 48
+ 0.2275 1 2 cbr 210 ------- 0 1.0 3.1 34 49
- 0.2275 1 2 cbr 210 ------- 0 1.0 3.1 34 49
- 0.228834 0 2 tcp 1040 ------- 0 0.0 3.0 8 48
r 0.22917 2 0 ack 40 ------- 0 3.0 0.0 4 41
+ 0.22917 0 2 tcp 1040 ------- 0 0.0 3.0 9 50
+ 0.22917 0 2 tcp 1040 ------- 0 0.0 3.0 10 51
r 0.229422 2 3 cbr 210 ------- 0 1.0 3.1 29 40
r 0.230336 1 2 cbr 210 ------- 0 1.0 3.1 32 45
+ 0.230336 2 3 cbr 210 ------- 0 1.0 3.1 32 45
- 0.230336 2 3 cbr 210 ------- 0 1.0 3.1 32 45
- 0.230498 0 2 tcp 1040 ------- 0 0.0 3.0 9 50
r 0.230834 2 0 ack 40 ------- 0 3.0 0.0 5 42
+ 0.230834 0 2 tcp 1040 ------- 0 0.0 3.0 11 52
+ 0.230834 0 2 tcp 1040 ------- 0 0.0 3.0 12 53
d 0.230834 0 2 tcp 1040 ------- 0 0.0 3.0 12 53
+ 0.23125 1 2 cbr 210 ------- 0 1.0 3.1 35 54
- 0.23125 1 2 cbr 210 ------- 0 1.0 3.1 35 54
- 0.232162 0 2 tcp 1040 ------- 0 0.0 3.0 10 51
r 0.233172 2 3 cbr 210 ------- 0 1.0 3.1 30 43
- 0.233826 0 2 tcp 1040 ------- 0 0.0 3.0 11 52
r 0.234086 1 2 cbr 210 ------- 0 1.0 3.1 33 46
+ 0.234086 2 3 cbr 210 ------- 0 1.0 3.1 33 46
- 0.234086 2 3 cbr 210 ------- 0 1.0 3.1 33 46
+ 0.235 1 2 cbr 210 ------- 0 1.0 3.1 36 55
- 0.235 1 2 cbr 210 ------- 0 1.0 3.1 36 55
r 0.236922 2 3 cbr 210 ------- 0 1.0 3.1 31 44
r 0.237836 1 2 cbr 210 ------- 0 1.0 3.1 34 49
+ 0.237836 2 3 cbr 210 ------- 0 1.0 3.1 34 49
- 0.237836 2 3 cbr 210 ------- 0 1.0 3.1 34 49
+ 0.23875 1 2 cbr 210 ------- 0 1.0 3.1 37 56
- 0.23875 1 2 cbr 210 ------- 0 1.0 3.1 37 56
r 0.238834 0 2 tcp 1040 ------- 0 0.0 3.0 7 47
+ 0.238834 2 3 tcp 1040 ------- 0 0.0 3.0 7 47
- 0.238834 2 3 tcp 1040 ------- 0 0.0 3.0 7 47
r 0.240498 0 2 tcp 1040 ------- 0 0.0 3.0 8 48
+ 0.240498 2 3 tcp 1040 ------- 0 0.0 3.0 8 48
- 0.240498 2 3 tcp 1040 ------- 0 0.0 3.0 8 48
r 0.240672 2 3 cbr 210 ------- 0 1.0 3.1 32 45
r 0.241586 1 2 cbr 210 ------- 0 1.0 3.1 35 54
+ 0.241586 2 3 cbr 210 ------- 0 1.0 3.1 35 54
r 0.242162 0 2 tcp 1040 ------- 0 0.0 3.0 9 50
+ 0.242162 2 3 tcp 1040 ------- 0 0.0 3.0 9 50
- 0.242162 2 3 cbr 210 ------- 0 1.0 3.1 35 54
- 0.242498 2 3 tcp 1040 ------- 0 0.0 3.0 9 50
+ 0.2425 1 2 cbr 210 ------- 0 1.0 3.1 38 57
- 0.2425 1 2 cbr 210 ------- 0 1.0 3.1 38 57
r 0.243826 0 2 tcp 1040 ------- 0 0.0 3.0 10 51
+ 0.243826 2 3 tcp 1040 ------- 0 0.0 3.0 10 51
- 0.244162 2 3 tcp 1040 ------- 0 0.0 3.0 10 51
r 0.244422 2 3 cbr 210 ------- 0 1.0 3.1 33 46
r 0.245336 1 2 cbr 210 ------- 0 1.0 3.1 36 55
+ 0.245336 2 3 cbr 210 ------- 0 1.0 3.1 36 55
r 0.24549 0 2 tcp 1040 ------- 0 0.0 3.0 11 52
+ 0.24549 2 3 tcp 1040 ------- 0 0.0 3.0 11 52
- 0.245826 2 3 cbr 210 ------- 0 1.0 3.1 36 55
- 0.246162 2 3 tcp 1040 ------- 0 0.0 3.0 11 52
+ 0.24625 1 2 cbr 210 ------- 0 1.0 3.1 39 58
- 0.24625 1 2 cbr 210 ------- 0 1.0 3.1 39 58
r 0.248172 2 3 cbr 210 ------- 0 1.0 3.1 34 49
r 0.249086 1 2 cbr 210 ------- 0 1.0 3.1 37 56
+ 0.249086 2 3 cbr 210 ------- 0 1.0 3.1 37 56
- 0.249086 2 3 cbr 210 ------- 0 1.0 3.1 37 56
+ 0.25 1 2 cbr 210 ------- 0 1.0 3.1 40 59
- 0.25 1 2 cbr 210 ------- 0 1.0 3.1 40 59
r 0.250498 2 3 tcp 1040 ------- 0 0.0 3.0 7 47
+ 0.250498 3 2 ack 40 ------- 0 3.0 0.0 5 60
- 0.250498 3 2 ack 40 ------- 0 3.0 0.0 5 60
r 0.252162 2 3 tcp 1040 ------- 0 0.0 3.0 8 48
+ 0.252162 3 2 ack 40 ------- 0 3.0 0.0 5 61
- 0.252162 3 2 ack 40 ------- 0 3.0 0.0 5 61
r 0.252498 2 3 cbr 210 ------- 0 1.0 3.1 35 54
r 0.252836 1 2 cbr 210 ------- 0 1.0 3.1 38 57
+ 0.252836 2 3 cbr 210 ------- 0 1.0 3.1 38 57
- 0.252836 2 3 cbr 210 ------- 0 1.0 3.1 38 57
+ 0.25375 1 2 cbr 210 ------- 0 1.0 3.1 41 62
- 0.25375 1 2 cbr 210 ------- 0 1.0 3.1 41 62
r 0.254162 2 3 tcp 1040 ------- 0 0.0 3.0 9 50
+ 0.254162 3 2 ack 40 ------- 0 3.0 0.0 5 63
- 0.254162 3 2 ack 40 ------- 0 3.0 0.0 5 63
r 0.255826 2 3 tcp 1040 ------- 0 0.0 3.0 10 51
+ 0.255826 3 2 ack 40 ------- 0 3.0 0.0 5 64
- 0.255826 3 2 ack 40 ------- 0 3.0 0.0 5 64
r 0.256162 2 3 cbr 210 ------- 0 1.0 3.1 36 55
r 0.256586 1 2 cbr 210 ------- 0 1.0 3.1 39 58
+ 0.256586 2 3 cbr 210 ------- 0 1.0 3.1 39 58
- 0.256586 2 3 cbr 210 ------- 0 1.0 3.1 39 58
+ 0.2575 1 2 cbr 210 ------- 0 1.0 3.1 42 65
- 0.2575 1 2 cbr 210 ------- 0 1.0 3.1 42 65
r 0.257826 2 3 tcp 1040 ------- 0 0.0 3.0 11 52
+ 0.257826 3 2 ack 40 ------- 0 3.0 0.0 5 66
- 0.257826 3 2 ack 40 ------- 0 3.0 0.0 5 66
r 0.259422 2 3 cbr 210 ------- 0 1.0 3.1 37 56
r 0.260336 1 2 cbr 210 ------- 0 1.0 3.1 40 59
+ 0.260336 2 3 cbr 210 ------- 0 1.0 3.1 40 59
- 0.260336 2 3 cbr 210 ------- 0 1.0 3.1 40 59
r 0.260562 3 2 ack 40 ------- 0 3.0 0.0 5 60
+ 0.260562 2 0 ack 40 ------- 0 3.0 0.0 5 60
- 0.260562 2 0 ack 40 ------- 0 3.0 0.0 5 60
+ 0.26125 1 2 cbr 210 ------- 0 1.0 3.1 43 67
- 0.26125 1 2 cbr 210 ------- 0 1.0 3.1 43 67
r 0.262226 3 2 ack 40 ------- 0 3.0 0.0 5 61
+ 0.262226 2 0 ack 40 ------- 0 3.0 0.0 5 61
- 0.262226 2 0 ack 40 ------- 0 3.0 0.0 5 61
r 0.263172 2 3 cbr 210 ------- 0 1.0 3.1 38 57
r 0.264086 1 2 cbr 210 ------- 0 1.0 3.1 41 62
+ 0.264086 2 3 cbr 210 ------- 0 1.0 3.1 41 62
- 0.264086 2 3 cbr 210 ------- 0 1.0 3.1 41 62
r 0.264226 3 2 ack 40 ------- 0 3.0 0.0 5 63
+ 0.264226 2 0 ack 40 ------- 0 3.0 0.0 5 63
- 0.264226 2 0 ack 40 ------- 0 3.0 0.0 5 63
+ 0.265 1 2 cbr 210 ------- 0 1.0 3.1 44 68
- 0.265 1 2 cbr 210 ------- 0 1.0 3.1 44 68
r 0.26589 3 2 ack 40 ------- 0 3.0 0.0 5 64
+ 0.26589 2 0 ack 40 ------- 0 3.0 0.0 5 64
- 0.26589 2 0 ack 40 ------- 0 3.0 0.0 5 64
r 0.266922 2 3 cbr 210 ------- 0 1.0 3.1 39 58
r 0.267836 1 2 cbr 210 ------- 0 1.0 3.1 42 65
+ 0.267836 2 3 cbr 210 ------- 0 1.0 3.1 42 65
- 0.267836 2 3 cbr 210 ------- 0 1.0 3.1 42 65
r 0.26789 3 2 ack 40 ------- 0 3.0 0.0 5 66
+ 0.26789 2 0 ack 40 ------- 0 3.0 0.0 5 66
- 0.26789 2 0 ack 40 ------- 0 3.0 0.0 5 66
+ 0.26875 1 2 cbr 210 ------- 0 1.0 3.1 45 69
- 0.26875 1 2 cbr 210 ------- 0 1.0 3.1 45 69
r 0.270626 2 0 ack 40 ------- 0 3.0 0.0 5 60
+ 0.270626 0 2 tcp 1040 ------- 0 0.0 3.0 13 70
- 0.270626 0 2 tcp 1040 ------- 0 0.0 3.0 13 70
r 0.270672 2 3 cbr 210 ------- 0 1.0 3.1 40 59
r 0.271586 1 2 cbr 210 ------- 0 1.0 3.1 43 67
+ 0.271586 2 3 cbr 210 ------- 0 1.0 3.1 43 67
- 0.271586 2 3 cbr 210 ------- 0 1.0 3.1 43 67
r 0.27229 2 0 ack 40 ------- 0 3.0 0.0 5 61
+ 0.27229 0 2 tcp 1040 ------- 0 0.0 3.0 14 71
- 0.27229 0 2 tcp 1040 ------- 0 0.0 3.0 14 71
+ 0.2725 1 2 cbr 210 ------- 0 1.0 3.1 46 72
- 0.2725 1 2 cbr 210 ------- 0 1.0 3.1 46 72
r 0.27429 2 0 ack 40 ------- 0 3.0 0.0 5 63
+ 0.27429 0 2 tcp 1040 ---A--- 0 0.0 3.0 6 73
- 0.27429 0 2 tcp 1040 ---A--- 0 0.0 3.0 6 73
r 0.274422 2 3 cbr 210 ------- 0 1.0 3.1 41 62
r 0.275336 1 2 cbr 210 ------- 0 1.0 3.1 44 68
+ 0.275336 2 3 cbr 210 ------- 0 1.0 3.1 44 68
- 0.275336 2 3 cbr 210 ------- 0 1.0 3.1 44 68
r 0.275954 2 0 ack 40 ------- 0 3.0 0.0 5 64
+ 0.27625 1 2 cbr 210 ------- 0 1.0 3.1 47 74
- 0.27625 1 2 cbr 210 ------- 0 1.0 3.1 47 74
r 0.277954 2 0 ack 40 ------- 0 3.0 0.0 5 66
r 0.278172 2 3 cbr 210 ------- 0 1.0 3.1 42 65
r 0.279086 1 2 cbr 210 ------- 0 1.0 3.1 45 69
+ 0.279086 2 3 cbr 210 ------- 0 1.0 3.1 45 69
- 0.279086 2 3 cbr 210 ------- 0 1.0 3.1 45 69
+ 0.28 1 2 cbr 210 ------- 0 1.0 3.1 48 75
- 0.28 1 2 cbr 210 ------- 0 1.0 3.1 48 75
r 0.281922 2 3 cbr 210 ------- 0 1.0 3.1 43 67
r 0.28229 0 2 tcp 1040 ------- 0 0.0 3.0 13 70
+ 0.28229 2 3 tcp 1040 ------- 0 0.0 3.0 13 70
- 0.28229 2 3 tcp 1040 ------- 0 0.0 3.0 13 70
r 0.282836 1 2 cbr 210 ------- 0 1.0 3.1 46 72
+ 0.282836 2 3 cbr 210 ------- 0 1.0 3.1 46 72
+ 0.28375 1 2 cbr 210 ------- 0 1.0 3.1 49 76
- 0.28375 1 2 cbr 210 ------- 0 1.0 3.1 49 76
r 0.283954 0 2 tcp 1040 ------- 0 0.0 3.0 14 71
+ 0.283954 2 3 tcp 1040 ------- 0 0.0 3.0 14 71
- 0.283954 2 3 cbr 210 ------- 0 1.0 3.1 46 72
- 0.28429 2 3 tcp 1040 ------- 0 0.0 3.0 14 71
r 0.285672 2 3 cbr 210 ------- 0 1.0 3.1 44 68
r 0.285954 0 2 tcp 1040 ---A--- 0 0.0 3.0 6 73
+ 0.285954 2 3 tcp 1040 ---A--- 0 0.0 3.0 6 73
- 0.285954 2 3 tcp 1040 ---A--- 0 0.0 3.0 6 73
r 0.286586 1 2 cbr 210 ------- 0 1.0 3.1 47 74
+ 0.286586 2 3 cbr 210 ------- 0 1.0 3.1 47 74
+ 0.2875 1 2 cbr 210 ------- 0 1.0 3.1 50 77
- 0.2875 1 2 cbr 210 ------- 0 1.0 3.1 50 77
- 0.287618 2 3 cbr 210 ------- 0 1.0 3.1 47 74
r 0.289422 2 3 cbr 210 ------- 0 1.0 3.1 45 69
r 0.290336 1 2 cbr 210 ------- 0 1.0 3.1 48 75
+ 0.290336 2 3 cbr 210 ------- 0 1.0 3.1 48 75
- 0.290336 2 3 cbr 210 ------- 0 1.0 3.1 48 75
+ 0.29125 1 2 cbr 210 ------- 0 1.0 3.1 51 78
- 0.29125 1 2 cbr 210 ------- 0 1.0 3.1 51 78
r 0.293954 2 3 tcp 1040 ------- 0 0.0 3.0 13 70
+ 0.293954 3 2 ack 40 ------- 0 3.0 0.0 5 79
- 0.293954 3 2 ack 40 ------- 0 3.0 0.0 5 79
r 0.294086 1 2 cbr 210 ------- 0 1.0 3.1 49 76
+ 0.294086 2 3 cbr 210 ------- 0 1.0 3.1 49 76
- 0.294086 2 3 cbr 210 ------- 0 1.0 3.1 49 76
r 0.29429 2 3 cbr 210 ------- 0 1.0 3.1 46 72
+ 0.295 1 2 cbr 210 ------- 0 1.0 3.1 52 80
- 0.295 1 2 cbr 210 ------- 0 1.0 3.1 52 80
r 0.295954 2 3 tcp 1040 ------- 0 0.0 3.0 14 71
+ 0.295954 3 2 ack 40 ------- 0 3.0 0.0 5 81
- 0.295954 3 2 ack 40 ------- 0 3.0 0.0 5 81
r 0.297618 2 3 tcp 1040 ---A--- 0 0.0 3.0 6 73
+ 0.297618 3 2 ack 40 ------- 0 3.0 0.0 11 82
- 0.297618 3 2 ack 40 ------- 0 3.0 0.0 11 82
r 0.297836 1 2 cbr 210 ------- 0 1.0 3.1 50 77
+ 0.297836 2 3 cbr 210 ------- 0 1.0 3.1 50 77
- 0.297836 2 3 cbr 210 ------- 0 1.0 3.1 50 77
r 0.297954 2 3 cbr 210 ------- 0 1.0 3.1 47 74
+ 0.29875 1 2 cbr 210 ------- 0 1.0 3.1 53 83
- 0.29875 1 2 cbr 210 ------- 0 1.0 3.1 53 83
r 0.300672 2 3 cbr 210 ------- 0 1.0 3.1 48 75
r 0.301586 1 2 cbr 210 ------- 0 1.0 3.1 51 78
+ 0.301586 2 3 cbr 210 ------- 0 1.0 3.1 51 78
- 0.301586 2 3 cbr 210 ------- 0 1.0 3.1 51 78
+ 0.3025 1 2 cbr 210 ------- 0 1.0 3.1 54 84
- 0.3025 1 2 cbr 210 ------- 0 1.0 3.1 54 84
r 0.304018 3 2 ack 40 ------- 0 3.0 0.0 5 79
+ 0.304018 2 0 ack 40 ------- 0 3.0 0.0 5 79
- 0.304018 2 0 ack 40 ------- 0 3.0 0.0 5 79
r 0.304422 2 3 cbr 210 ------- 0 1.0 3.1 49 76
r 0.305336 1 2 cbr 210 ------- 0 1.0 3.1 52 80
+ 0.305336 2 3 cbr 210 ------- 0 1.0 3.1 52 80
- 0.305336 2 3 cbr 210 ------- 0 1.0 3.1 52 80
r 0.306018 3 2 ack 40 ------- 0 3.0 0.0 5 81
+ 0.306018 2 0 ack 40 ------- 0 3.0 0.0 5 81
- 0.306018 2 0 ack 40 ------- 0 3.0 0.0 5 81
+ 0.30625 1 2 cbr 210 ------- 0 1.0 3.1 55 85
- 0.30625 1 2 cbr 210 ------- 0 1.0 3.1 55 85
r 0.307682 3 2 ack 40 ------- 0 3.0 0.0 11 82
+ 0.307682 2 0 ack 40 ------- 0 3.0 0.0 11 82
- 0.307682 2 0 ack 40 ------- 0 3.0 0.0 11 82
r 0.308172 2 3 cbr 210 ------- 0 1.0 3.1 50 77
r 0.309086 1 2 cbr 210 ------- 0 1.0 3.1 53 83
+ 0.309086 2 3 cbr 210 ------- 0 1.0 3.1 53 83
- 0.309086 2 3 cbr 210 ------- 0 1.0 3.1 53 83
+ 0.31 1 2 cbr 210 ------- 0 1.0 3.1 56 86
- 0.31 1 2 cbr 210 ------- 0 1.0 3.1 56 86
r 0.311922 2 3 cbr 210 ------- 0 1.0 3.1 51 78
r 0.312836 1 2 cbr 210 ------- 0 1.0 3.1 54 84
+ 0.312836 2 3 cbr 210 ------- 0 1.0 3.1 54 84
- 0.312836 2 3 cbr 210 ------- 0 1.0 3.1 54 84
+ 0.31375 1 2 cbr 210 ------- 0 1.0 3.1 57 87
- 0.31375 1 2 cbr 210 ------- 0 1.0 3.1 57 87
r 0.314082 2 0 ack 40 ------- 0 3.0 0.0 5 79
r 0.315672 2 3 cbr 210 ------- 0 1.0 3.1 52 80
r 0.316082 2 0 ack 40 ------- 0 3.0 0.0 5 81
r 0.316586 1 2 cbr 210 ------- 0 1.0 3.1 55 85
+ 0.316586 2 3 cbr 210 ------- 0 1.0 3.1 55 85
- 0.316586 2 3 cbr 210 ------- 0 1.0 3.1 55 85
+ 0.3175 1 2 cbr 210 ------- 0 1.0 3.1 58 88
- 0.3175 1 2 cbr 210 ------- 0 1.0 3.1 58 88
r 0.317746 2 0 ack 40 ------- 0 3.0 0.0 11 82
+ 0.317746 0 2 tcp 1040 ------- 0 0.0 3.0 12 89
- 0.317746 0 2 tcp 1040 ------- 0 0.0 3.0 12 89
+ 0.317746 0 2 tcp 1040 ------- 0 0.0 3.0 13 90
- 0.31941 0 2 tcp 1040 ------- 0 0.0 3.0 13 90
r 0.319422 2 3 cbr 210 ------- 0 1.0 3.1 53 83
r 0.320336 1 2 cbr 210 ------- 0 1.0 3.1 56 86
+ 0.320336 2 3 cbr 210 ------- 0 1.0 3.1 56 86
- 0.320336 2 3 cbr 210 ------- 0 1.0 3.1 56 86
+ 0.32125 1 2 cbr 210 ------- 0 1.0 3.1 59 91
- 0.32125 1 2 cbr 210 ------- 0 1.0 3.1 59 91
r 0.323172 2 3 cbr 210 ------- 0 1.0 3.1 54 84
r 0.324086 1 2 cbr 210 ------- 0 1.0 3.1 57 87
+ 0.324086 2 3 cbr 210 ------- 0 1.0 3.1 57 87
- 0.324086 2 3 cbr 210 ------- 0 1.0 3.1 57 87
+ 0.325 1 2 cbr 210 ------- 0 1.0 3.1 60 92
- 0.325 1 2 cbr 210 ------- 0 1.0 3.1 60 92
r 0.326922 2 3 cbr 210 ------- 0 1.0 3.1 55 85
r 0.327836 1 2 cbr 210 ------- 0 1.0 3.1 58 88
+ 0.327836 2 3 cbr 210 ------- 0 1.0 3.1 58 88
- 0.327836 2 3 cbr 210 ------- 0 1.0 3.1 58 88
+ 0.32875 1 2 cbr 210 ------- 0 1.0 3.1 61 93
- 0.32875 1 2 cbr 210 ------- 0 1.0 3.1 61 93
r 0.32941 0 2 tcp 1040 ------- 0 0.0 3.0 12 89
+ 0.32941 2 3 tcp 1040 ------- 0 0.0 3.0 12 89
- 0.32941 2 3 tcp 1040 ------- 0 0.0 3.0 12 89
r 0.330672 2 3 cbr 210 ------- 0 1.0 3.1 56 86
r 0.331074 0 2 tcp 1040 ------- 0 0.0 3.0 13 90
+ 0.331074 2 3 tcp 1040 ------- 0 0.0 3.0 13 90
- 0.331074 2 3 tcp 1040 ------- 0 0.0 3.0 13 90
r 0.331586 1 2 cbr 210 ------- 0 1.0 3.1 59 91
+ 0.331586 2 3 cbr 210 ------- 0 1.0 3.1 59 91
+ 0.3325 1 2 cbr 210 ------- 0 1.0 3.1 62 94
- 0.3325 1 2 cbr 210 ------- 0 1.0 3.1 62 94
- 0.332738 2 3 cbr 210 ------- 0 1.0 3.1 59 91
r 0.334422 2 3 cbr 210 ------- 0 1.0 3.1 57 87
r 0.335336 1 2 cbr 210 ------- 0 1.0 3.1 60 92
+ 0.335336 2 3 cbr 210 ------- 0 1.0 3.1 60 92
- 0.335336 2 3 cbr 210 ------- 0 1.0 3.1 60 92
+ 0.33625 1 2 cbr 210 ------- 0 1.0 3.1 63 95
- 0.33625 1 2 cbr 210 ------- 0 1.0 3.1 63 95
r 0.338172 2 3 cbr 210 ------- 0 1.0 3.1 58 88
r 0.339086 1 2 cbr 210 ------- 0 1.0 3.1 61 93
+ 0.339086 2 3 cbr 210 ------- 0 1.0 3.1 61 93
- 0.339086 2 3 cbr 210 ------- 0 1.0 3.1 61 93
+ 0.34 1 2 cbr 210 ------- 0 1.0 3.1 64 96
- 0.34 1 2 cbr 210 ------- 0 1.0 3.1 64 96
r 0.341074 2 3 tcp 1040 ------- 0 0.0 3.0 12 89
+ 0.341074 3 2 ack 40 ------- 0 3.0 0.0 14 97
- 0.341074 3 2 ack 40 ------- 0 3.0 0.0 14 97
r 0.342738 2 3 tcp 1040 ------- 0 0.0 3.0 13 90
+ 0.342738 3 2 ack 40 ------- 0 3.0 0.0 14 98
- 0.342738 3 2 ack 40 ------- 0 3.0 0.0 14 98
r 0.342836 1 2 cbr 210 ------- 0 1.0 3.1 62 94
+ 0.342836 2 3 cbr 210 ------- 0 1.0 3.1 62 94
- 0.342836 2 3 cbr 210 ------- 0 1.0 3.1 62 94
r 0.343074 2 3 cbr 210 ------- 0 1.0 3.1 59 91
+ 0.34375 1 2 cbr 210 ------- 0 1.0 3.1 65 99
- 0.34375 1 2 cbr 210 ------- 0 1.0 3.1 65 99
r 0.345672 2 3 cbr 210 ------- 0 1.0 3.1 60 92
r 0.346586 1 2 cbr 210 ------- 0 1.0 3.1 63 95
+ 0.346586 2 3 cbr 210 ------- 0 1.0 3.1 63 95
- 0.346586 2 3 cbr 210 ------- 0 1.0 3.1 63 95
+ 0.3475 1 2 cbr 210 ------- 0 1.0 3.1 66 100
- 0.3475 1 2 cbr 210 ------- 0 1.0 3.1 66 100
r 0.349422 2 3 cbr 210 ------- 0 1.0 3.1 61 93
r 0.350336 1 2 cbr 210 ------- 0 1.0 3.1 64 96
+ 0.350336 2 3 cbr 210 ------- 0 1.0 3.1 64 96
- 0.350336 2 3 cbr 210 ------- 0 1.0 3.1 64 96
r 0.351138 3 2 ack 40 ------- 0 3.0 0.0 14 97
+ 0.351138 2 0 ack 40 ------- 0 3.0 0.0 14 97
- 0.351138 2 0 ack 40 ------- 0 3.0 0.0 14 97
+ 0.35125 1 2 cbr 210 ------- 0 1.0 3.1 67 101
- 0.35125 1 2 cbr 210 ------- 0 1.0 3.1 67 101
r 0.352802 3 2 ack 40 ------- 0 3.0 0.0 14 98
+ 0.352802 2 0 ack 40 ------- 0 3.0 0.0 14 98
- 0.352802 2 0 ack 40 ------- 0 3.0 0.0 14 98
r 0.353172 2 3 cbr 210 ------- 0 1.0 3.1 62 94
r 0.354086 1 2 cbr 210 ------- 0 1.0 3.1 65 99
+ 0.354086 2 3 cbr 210 ------- 0 1.0 3.1 65 99
- 0.354086 2 3 cbr 210 ------- 0 1.0 3.1 65 99
+ 0.355 1 2 cbr 210 ------- 0 1.0 3.1 68 102
- 0.355 1 2 cbr 210 ------- 0 1.0 3.1 68 102
r 0.356922 2 3 cbr 210 ------- 0 1.0 3.1 63 95
r 0.357836 1 2 cbr 210 ------- 0 1.0 3.1 66 100
+ 0.357836 2 3 cbr 210 ------- 0 1.0 3.1 66 100
- 0.357836 2 3 cbr 210 ------- 0 1.0 3.1 66 100
+ 0.35875 1 2 cbr 210 ------- 0 1.0 3.1 69 103
- 0.35875 1 2 cbr 210 ------- 0 1.0 3.1 69 103
r 0.360672 2 3 cbr 210 ------- 0 1.0 3.1 64 96
r 0.361202 2 0 ack 40 ------- 0 3.0 0.0 14 97
+ 0.361202 0 2 tcp 1040 ------- 0 0.0 3.0 15 104
- 0.361202 0 2 tcp 1040 ------- 0 0.0 3.0 15 104
+ 0.361202 0 2 tcp 1040 ------- 0 0.0 3.0 16 105
+ 0.361202 0 2 tcp 1040 ------- 0 0.0 3.0 17 106
r 0.361586 1 2 cbr 210 ------- 0 1.0 3.1 67 101
+ 0.361586 2 3 cbr 210 ------- 0 1.0 3.1 67 101
- 0.361586 2 3 cbr 210 ------- 0 1.0 3.1 67 101
+ 0.3625 1 2 cbr 210 ------- 0 1.0 3.1 70 107
- 0.3625 1 2 cbr 210 ------- 0 1.0 3.1 70 107
r 0.362866 2 0 ack 40 ------- 0 3.0 0.0 14 98
+ 0.362866 0 2 tcp 1040 ------- 0 0.0 3.0 18 108
d 0.362866 0 2 tcp 1040 ------- 0 0.0 3.0 18 108
- 0.362866 0 2 tcp 1040 ------- 0 0.0 3.0 16 105
r 0.364422 2 3 cbr 210 ------- 0 1.0 3.1 65 99
- 0.36453 0 2 tcp 1040 ------- 0 0.0 3.0 17 106
r 0.365336 1 2 cbr 210 ------- 0 1.0 3.1 68 102
+ 0.365336 2 3 cbr 210 ------- 0 1.0 3.1 68 102
- 0.365336 2 3 cbr 210 ------- 0 1.0 3.1 68 102
+ 0.36625 1 2 cbr 210 ------- 0 1.0 3.1 71 109
- 0.36625 1 2 cbr 210 ------- 0 1.0 3.1 71 109
r 0.368172 2 3 cbr 210 ------- 0 1.0 3.1 66 100
r 0.369086 1 2 cbr 210 ------- 0 1.0 3.1 69 103
+ 0.369086 2 3 cbr 210 ------- 0 1.0 3.1 69 103
- 0.369086 2 3 cbr 210 ------- 0 1.0 3.1 69 103
+ 0.37 1 2 cbr 210 ------- 0 1.0 3.1 72 110
- 0.37 1 2 cbr 210 ------- 0 1.0 3.1 72 110
r 0.371922 2 3 cbr 210 ------- 0 1.0 3.1 67 101
r 0.372836 1 2 cbr 210 ------- 0 1.0 3.1 70 107
+ 0.372836 2 3 cbr 210 ------- 0 1.0 3.1 70 107
- 0.372836 2 3 cbr 210 ------- 0 1.0 3.1 70 107
r 0.372866 0 2 tcp 1040 ------- 0 0.0 3.0 15 104
+ 0.372866 2 3 tcp 1040 ------- 0 0.0 3.0 15 104
- 0.373172 2 3 tcp 1040 ------- 0 0.0 3.0 15 104
+ 0.37375 1 2 cbr 210 ------- 0 1.0 3.1 73 111
- 0.37375 1 2 cbr 210 ------- 0 1.0 3.1 73 111
r 0.37453 0 2 tcp 1040 ------- 0 0.0 3.0 16 105
+ 0.37453 2 3 tcp 1040 ------- 0 0.0 3.0 16 105
- 0.374836 2 3 tcp 1040 ------- 0 0.0 3.0 16 105
r 0.375672 2 3 cbr 210 ------- 0 1.0 3.1 68 102
r 0.376194 0 2 tcp 1040 ------- 0 0.0 3.0 17 106
+ 0.376194 2 3 tcp 1040 ------- 0 0.0 3.0 17 106
- 0.3765 2 3 tcp 1040 ------- 0 0.0 3.0 17 106
r 0.376586 1 2 cbr 210 ------- 0 1.0 3.1 71 109
+ 0.376586 2 3 cbr 210 ------- 0 1.0 3.1 71 109
+ 0.3775 1 2 cbr 210 ------- 0 1.0 3.1 74 112
- 0.3775 1 2 cbr 210 ------- 0 1.0 3.1 74 112
- 0.378164 2 3 cbr 210 ------- 0 1.0 3.1 71 109
r 0.379422 2 3 cbr 210 ------- 0 1.0 3.1 69 103