V -t * -v 1.0a5 -a 0
A -t * -n 1 -p 0 -o 0x7fffffff -c 30 -a 1
A -t * -h 1 -m 1073741823 -s 0
n -t * -a 0 -s 0 -S UP -v circle -c black -i black
n -t * -a 1 -s 1 -S UP -v circle -c black -i black
n -t * -a 2 -s 2 -S UP -v circle -c black -i black
n -t * -a 3 -s 3 -S UP -v circle -c black -i black
l -t * -s 0 -d 2 -S UP -r 5000000 -D 0.01 -c black
l -t * -s 1 -d 2 -S UP -r 5000000 -D 0.01 -c black
l -t * -s 2 -d 3 -S UP -r 5000000 -D 0.01 -c black
+ -t 0.1 -s 0 -d 2 -p tcp -e 40 -c 0 -i 0 -a 0 -x {0.0 3.0 0 ------- null}
- -t 0.1 -s 0 -d 2 -p tcp -e 40 -c 0 -i 0 -a 0 -x {0.0 3.0 0 ------- null}
h -t 0.1 -s 0 -d 2 -p tcp -e 40 -c 0 -i 0 -a 0 -x {0.0 3.0 -1 ------- null}
+ -t 0.1 -s 1 -d 2 -p cbr -e 210 -c 0 -i 1 -a 0 -x {1.0 3.1 0 ------- null}
- -t 0.1 -s 1 -d 2 -p cbr -e 210 -c 0 -i 1 -a 0 -x {1.0 3.1 0 ------- null}
h -t 0.1 -s 1 -d 2 -p cbr -e 210 -c 0 -i 1 -a 0 -x {1.0 3.1 -1 ------- null}
+ -t 0.10375 -s 1 -d 2 -p cbr -e 210 -c 0 -i 2 -a 0 -x {1.0 3.1 1 ------- null}
- -t 0.10375 -s 1 -d 2 -p cbr -e 210 -c 0 -i 2 -a 0 -x {1.0 3.1 1 ------- null}
h -t 0.10375 -s 1 -d 2 -p cbr -e 210 -c 0 -i 2 -a 0 -x {1.0 3.1 -1 ------- null}
+ -t 0.1075 -s 1 -d 2 -p cbr -e 210 -c 0 -i 3 -a 0 -x {1.0 3.1 2 ------- null}
- -t 0.1075 -s 1 -d 2 -p cbr -e 210 -c 0 -i 3 -a 0 -x {1.0 3.1 2 ------- null}
h -t 0.1075 -s 1 -d 2 -p cbr -e 210 -c 0 -i 3 -a 0 -x {1.0 3.1 -1 ------- null}
r -t 0.110064 -s 0 -d 2 -p tcp -e 40 -c 0 -i 0 -a 0 -x {0.0 3.0 0 ------- null}
+ -t 0.110064 -s 2 -d 3 -p tcp -e 40 -c 0 -i 0 -a 0 -x {0.0 3.0 0 ------- null}
- -t 0.110064 -s 2 -d 3 -p tcp -e 40 -c 0 -i 0 -a 0 -x {0.0 3.0 0 ------- null}
h -t 0.110064 -s 2 -d 3 -p tcp -e 40 -c 0 -i 0 -a 0 -x {0.0 3.0 -1 ------- null}
r -t 0.110336 -s 1 -d 2 -p cbr -e 210 -c 0 -i 1 -a 0 -x {1.0 3.1 0 ------- null}
+ -t 0.110336 -s 2 -d 3 -p cbr -e 210 -c 0 -i 1 -a 0 -x {1.0 3.1 0 ------- null}
- -t 0.110336 -s 2 -d 3 -p cbr -e 210 -c 0 -i 1 -a 0 -x {1.0 3.1 0 ------- null}
h -t 0.110336 -s 2 -d 3 -p cbr -e 210 -c 0 -i 1 -a 0 -x {1.0 3.1 -1 ------- null}
+ -t 0.11125 -s 1 -d 2 -p cbr -e 210 -c 0 -i 4 -a 0 -x {1.0 3.1 3 ------- null}
- -t 0.11125 -s 1 -d 2 -p cbr -e 210 -c 0 -i 4 -a 0 -x {1.0 3.1 3 ------- null}
h -t 0.11125 -s 1 -d 2 -p cbr -e 210 -c 0 -i 4 -a 0 -x {1.0 3.1 -1 ------- null}
r -t 0.114086 -s 1 -d 2 -p cbr -e 210 -c 0 -i 2 -a 0 -x {1.0 3.1 1 ------- null}
+ -t 0.114086 -s 2 -d 3 -p cbr -e 210 -c 0 -i 2 -a 0 -x {1.0 3.1 1 ------- null}
- -t 0.114086 -s 2 -d 3 -p cbr -e 210 -c 0 -i 2 -a 0 -x {1.0 3.1 1 ------- null}
h -t 0.114086 -s 2 -d 3 -p cbr -e 210 -c 0 -i 2 -a 0 -x {1.0 3.1 -1 ------- null}
+ -t 0.115 -s 1 -d 2 -p cbr -e 210 -c 0 -i 5 -a 0 -x {1.0 3.1 4 ------- null}
- -t 0.115 -s 1 -d 2 -p cbr -e 210 -c 0 -i 5 -a 0 -x {1.0 3.1 4 ------- null}
h -t 0.115 -s 1 -d 2 -p cbr -e 210 -c 0 -i 5 -a 0 -x {1.0 3.1 -1 ------- null}
r -t 0.117836 -s 1 -d 2 -p cbr -e 210 -c 0 -i 3 -a 0 -x {1.0 3.1 2 ------- null}
+ -t 0.117836 -s 2 -d 3 -p cbr -e 210 -c 0 -i 3 -a 0 -x {1.0 3.1 2 ------- null}
- -t 0.117836 -s 2 -d 3 -p cbr -e 210 -c 0 -i 3 -a 0 -x {1.0 3.1 2 ------- null}
h -t 0.117836 -s 2 -d 3 -p cbr -e 210 -c 0 -i 3 -a 0 -x {1.0 3.1 -1 ------- null}
+ -t 0.11875 -s 1 -d 2 -p cbr -e 210 -c 0 -i 6 -a 0 -x {1.0 3.1 5 ------- null}
- -t 0.11875 -s 1 -d 2 -p cbr -e 210 -c 0 -i 6 -a 0 -x {1.0 3.1 5 ------- null}
h -t 0.11875 -s 1 -d 2 -p cbr -e 210 -c 0 -i 6 -a 0 -x {1.0 3.1 -1 ------- null}
r -t 0.120128 -s 2 -d 3 -p tcp -e 40 -c 0 -i 0 -a 0 -x {0.0 3.0 0 ------- null}
+ -t 0.120128 -s 3 -d 2 -p ack -e 40 -c 0 -i 7 -a 0 -x {3.0 0.0 0 ------- null}
- -t 0.120128 -s 3 -d 2 -p ack -e 40 -c 0 -i 7 -a 0 -x {3.0 0.0 0 ------- null}
h -t 0.120128 -s 3 -d 2 -p ack -e 40 -c 0 -i 7 -a 0 -x {3.0 0.0 -1 ------- null}
r -t 0.120672 -s 2 -d 3 -p cbr -e 210 -c 0 -i 1 -a 0 -x {1.0 3.1 0 ------- null}
r -t 0.121586 -s 1 -d 2 -p cbr -e 210 -c 0 -i 4 -a 0 -x {1.0 3.1 3 ------- null}
+ -t 0.121586 -s 2 -d 3 -p cbr -e 210 -c 0 -i 4 -a 0 -x {1.0 3.1 3 ------- null}
- -t 0.121586 -s 2 -d 3 -p cbr -e 210 -c 0 -i 4 -a 0 -x {1.0 3.1 3 ------- null}
h -t 0.121586 -s 2 -d 3 -p cbr -e 210 -c 0 -i 4 -a 0 -x {1.0 3.1 -1 ------- null}
+ -t 0.1225 -s 1 -d 2 -p cbr -e 210 -c 0 -i 8 -a 0 -x {1.0 3.1 6 ------- null}
- -t 0.1225 -s 1 -d 2 -p cbr -e 210 -c 0 -i 8 -a 0 -x {1.0 3.1 6 ------- null}
h -t 0.1225 -s 1 -d 2 -p cbr -e 210 -c 0 -i 8 -a 0 -x {1.0 3.1 -1 ------- null}
r -t 0.124422 -s 2 -d 3 -p cbr -e 210 -c 0 -i 2 -a 0 -x {1.0 3.1 1 ------- null}
r -t 0.125336 -s 1 -d 2 -p cbr -e 210 -c 0 -i 5 -a 0 -x {1.0 3.1 4 ------- null}
+ -t 0.125336 -s 2 -d 3 -p cbr -e 210 -c 0 -i 5 -a 0 -x {1.0 3.1 4 ------- null}
- -t 0.125336 -s 2 -d 3 -p cbr -e 210 -c 0 -i 5 -a 0 -x {1.0 3.1 4 ------- null}
h -t 0.125336 -s 2 -d 3 -p cbr -e 210 -c 0 -i 5 -a 0 -x {1.0 3.1 -1 ------- null}
+ -t 0.12625 -s 1 -d 2 -p cbr -e 210 -c 0 -i 9 -a 0 -x {1.0 3.1 7 ------- null}
- -t 0.12625 -s 1 -d 2 -p cbr -e 210 -c 0 -i 9 -a 0 -x {1.0 3.1 7 ------- null}
h -t 0.12625 -s 1 -d 2 -p cbr -e 210 -c 0 -i 9 -a 0 -x {1.0 3.1 -1 ------- null}
r -t 0.128172 -s 2 -d 3 -p cbr -e 210 -c 0 -i 3 -a 0 -x {1.0 3.1 2 ------- null}
r -t 0.129086 -s 1 -d 2 -p cbr -e 210 -c 0 -i 6 -a 0 -x {1.0 3.1 5 ------- null}
+ -t 0.129086 -s 2 -d 3 -p cbr -e 210 -c 0 -i 6 -a 0 -x {1.0 3.1 5 ------- null}
- -t 0.129086 -s 2 -d 3 -p cbr -e 210 -c 0 -i 6 -a 0 -x {1.0 3.1 5 ------- null}
h -t 0.129086 -s 2 -d 3 -p cbr -e 210 -c 0 -i 6 -a 0 -x {1.0 3.1 -1 ------- null}
+ -t 0.13 -s 1 -d 2 -p cbr -e 210 -c 0 -i 10 -a 0 -x {1.0 3.1 8 ------- null}
- -t 0.13 -s 1 -d 2 -p cbr -e 210 -c 0 -i 10 -a 0 -x {1.0 3.1 8 ------- null}
h -t 0.13 -s 1 -d 2 -p cbr -e 210 -c 0 -i 10 -a 0 -x {1.0 3.1 -1 ------- null}
r -t 0.130192 -s 3 -d 2 -p ack -e 40 -c 0 -i 7 -a 0 -x {3.0 0.0 0 ------- null}
+ -t 0.130192 -s 2 -d 0 -p ack -e 40 -c 0 -i 7 -a 0 -x {3.0 0.0 0 ------- null}
- -t 0.130192 -s 2 -d 0 -p ack -e 40 -c 0 -i 7 -a 0 -x {3.0 0.0 0 ------- null}
h -t 0.130192 -s 2 -d 0 -p ack -e 40 -c 0 -i 7 -a 0 -x {3.0 0.0 -1 ------- null}
r -t 0.131922 -s 2 -d 3 -p cbr -e 210 -c 0 -i 4 -a 0 -x {1.0 3.1 3 ------- null}
r -t 0.132836 -s 1 -d 2 -p cbr -e 210 -c 0 -i 8 -a 0 -x {1.0 3.1 6 ------- null}
+ -t 0.132836 -s 2 -d 3 -p cbr -e 210 -c 0 -i 8 -a 0 -x {1.0 3.1 6 ------- null}
- -t 0.132836 -s 2 -d 3 -p cbr -e 210 -c 0 -i 8 -a 0 -x {1.0 3.1 6 ------- null}
h -t 0.132836 -s 2 -d 3 -p cbr -e 210 -c 0 -i 8 -a 0 -x {1.0 3.1 -1 ------- null}
+ -t 0.13375 -s 1 -d 2 -p cbr -e 210 -c 0 -i 11 -a 0 -x {1.0 3.1 9 ------- null}
- -t 0.13375 -s 1 -d 2 -p cbr -e 210 -c 0 -i 11 -a 0 -x {1.0 3.1 9 ------- null}
h -t 0.13375 -s 1 -d 2 -p cbr -e 210 -c 0 -i 11 -a 0 -x {1.0 3.1 -1 ------- null}
r -t 0.135672 -s 2 -d 3 -p cbr -e 210 -c 0 -i 5 -a 0 -x {1.0 3.1 4 ------- null}
r -t 0.136586 -s 1 -d 2 -p cbr -e 210 -c 0 -i 9 -a 0 -x {1.0 3.1 7 ------- null}
+ -t 0.136586 -s 2 -d 3 -p cbr -e 210 -c 0 -i 9 -a 0 -x {1.0 3.1 7 ------- null}
- -t 0.136586 -s 2 -d 3 -p cbr -e 210 -c 0 -i 9 -a 0 -x {1.0 3.1 7 ------- null}
h -t 0.136586 -s 2 -d 3 -p cbr -e 210 -c 0 -i 9 -a 0 -x {1.0 3.1 -1 ------- null}
+ -t 0.1375 -s 1 -d 2 -p cbr -e 210 -c 0 -i 12 -a 0 -x {1.0 3.1 10 ------- null}
- -t 0.1375 -s 1 -d 2 -p cbr -e 210 -c 0 -i 12 -a 0 -x {1.0 3.1 10 ------- null}
h -t 0.1375 -s 1 -d 2 -p cbr -e 210 -c 0 -i 12 -a 0 -x {1.0 3.1 -1 ------- null}
r -t 0.139422 -s 2 -d 3 -p cbr -e 210 -c 0 -i 6 -a 0 -x {1.0 3.1 5 ------- null}
r -t 0.140256 -s 2 -d 0 -p ack -e 40 -c 0 -i 7 -a 0 -x {3.0 0.0 0 ------- null}
+ -t 0.140256 -s 0 -d 2 -p tcp -e 1040 -c 0 -i 13 -a 0 -x {0.0 3.0 1 ------- null}
- -t 0.140256 -s 0 -d 2 -p tcp -e 1040 -c 0 -i 13 -a 0 -x {0.0 3.0 1 ------- null}
h -t 0.140256 -s 0 -d 2 -p tcp -e 1040 -c 0 -i 13 -a 0 -x {0.0 3.0 -1 ------- null}
+ -t 0.140256 -s 0 -d 2 -p tcp -e 1040 -c 0 -i 14 -a 0 -x {0.0 3.0 2 ------- null}
r -t 0.140336 -s 1 -d 2 -p cbr -e 210 -c 0 -i 10 -a 0 -x {1.0 3.1 8 ------- null}
+ -t 0.140336 -s 2 -d 3 -p cbr -e 210 -c 0 -i 10 -a 0 -x {1.0 3.1 8 ------- null}
- -t 0.140336 -s 2 -d 3 -p cbr -e 210 -c 0 -i 10 -a 0 -x {1.0 3.1 8 ------- null}
h -t 0.140336 -s 2 -d 3 -p cbr -e 210 -c 0 -i 10 -a 0 -x {1.0 3.1 -1 ------- null}
+ -t 0.14125 -s 1 -d 2 -p cbr -e 210 -c 0 -i 15 -a 0 -x {1.0 3.1 11 ------- null}
- -t 0.14125 -s 1 -d 2 -p cbr -e 210 -c 0 -i 15 -a 0 -x {1.0 3.1 11 ------- null}
h -t 0.14125 -s 1 -d 2 -p cbr -e 210 -c 0 -i 15 -a 0 -x {1.0 3.1 -1 ------- null}
- -t 0.14192 -s 0 -d 2 -p tcp -e 1040 -c 0 -i 14 -a 0 -x {0.0 3.0 2 ------- null}
h -t 0.14192 -s 0 -d 2 -p tcp -e 1040 -c 0 -i 14 -a 0 -x {0.0 3.0 -1 ------- null}
r -t 0.143172 -s 2 -d 3 -p cbr -e 210 -c 0 -i 8 -a 0 -x {1.0 3.1 6 ------- null}
r -t 0.144086 -s 1 -d 2 -p cbr -e 210 -c 0 -i 11 -a 0 -x {1.0 3.1 9 ------- null}
+ -t 0.144086 -s 2 -d 3 -p cbr -e 210 -c 0 -i 11 -a 0 -x {1.0 3.1 9 ------- null}
- -t 0.144086 -s 2 -d 3 -p cbr -e 210 -c 0 -i 11 -a 0 -x {1.0 3.1 9 ------- null}
h -t 0.144086 -s 2 -d 3 -p cbr -e 210 -c 0 -i 11 -a 0 -x {1.0 3.1 -1 ------- null}
+ -t 0.145 -s 1 -d 2 -p cbr -e 210 -c 0 -i 16 -a 0 -x {1.0 3.1 12 ------- null}
- -t 0.145 -s 1 -d 2 -p cbr -e 210 -c 0 -i 16 -a 0 -x {1.0 3.1 12 ------- null}
h -t 0.145 -s 1 -d 2 -p cbr -e 210 -c 0 -i 16 -a 0 -x {1.0 3.1 -1 ------- null}
r -t 0.146922 -s 2 -d 3 -p cbr -e 210 -c 0 -i 9 -a 0 -x {1.0 3.1 7 ------- null}
r -t 0.147836 -s 1 -d 2 -p cbr -e 210 -c 0 -i 12 -a 0 -x {1.0 3.1 10 ------- null}
+ -t 0.147836 -s 2 -d 3 -p cbr -e 210 -c 0 -i 12 -a 0 -x {1.0 3.1 10 ------- null}
- -t 0.147836 -s 2 -d 3 -p cbr -e 210 -c 0 -i 12 -a 0 -x {1.0 3.1 10 ------- null}
h -t 0.147836 -s 2 -d 3 -p cbr -e 210 -c 0 -i 12 -a 0 -x {1.0 3.1 -1 ------- null}
+ -t 0.14875 -s 1 -d 2 -p cbr -e 210 -c 0 -i 17 -a 0 -x {1.0 3.1 13 ------- null}
- -t 0.14875 -s 1 -d 2 -p cbr -e 210 -c 0 -i 17 -a 0 -x {1.0 3.1 13 ------- null}
h -t 0.14875 -s 1 -d 2 -p cbr -e 210 -c 0 -i 17 -a 0 -x {1.0 3.1 -1 ------- null}
r -t 0.150672 -s 2 -d 3 -p cbr -e 210 -c 0 -i 10 -a 0 -x {1.0 3.1 8 ------- null}
r -t 0.151586 -s 1 -d 2 -p cbr -e 210 -c 0 -i 15 -a 0 -x {1.0 3.1 11 ------- null}
+ -t 0.151586 -s 2 -d 3 -p cbr -e 210 -c 0 -i 15 -a 0 -x {1.0 3.1 11 ------- null}
- -t 0.151586 -s 2 -d 3 -p cbr -e 210 -c 0 -i 15 -a 0 -x {1.0 3.1 11 ------- null}
h -t 0.151586 -s 2 -d 3 -p cbr -e 210 -c 0 -i 15 -a 0 -x {1.0 3.1 -1 ------- null}
r -t 0.15192 -s 0 -d 2 -p tcp -e 1040 -c 0 -i 13 -a 0 -x {0.0 3.0 1 ------- null}
+ -t 0.15192 -s 2 -d 3 -p tcp -e 1040 -c 0 -i 13 -a 0 -x {0.0 3.0 1 ------- null}
- -t 0.151922 -s 2 -d 3 -p tcp -e 1040 -c 0 -i 13 -a 0 -x {0.0 3.0 1 ------- null}
h -t 0.151922 -s 2 -d 3 -p tcp -e 1040 -c 0 -i 13 -a 0 -x {0.0 3.0 -1 ------- null}
+ -t 0.1525 -s 1 -d 2 -p cbr -e 210 -c 0 -i 18 -a 0 -x {1.0 3.1 14 ------- null}
- -t 0.1525 -s 1 -d 2 -p cbr -e 210 -c 0 -i 18 -a 0 -x {1.0 3.1 14 ------- null}
h -t 0.1525 -s 1 -d 2 -p cbr -e 210 -c 0 -i 18 -a 0 -x {1.0 3.1 -1 ------- null}
r -t 0.153584 -s 0 -d 2 -p tcp -e 1040 -c 0 -i 14 -a 0 -x {0.0 3.0 2 ------- null}
+ -t 0.153584 -s 2 -d 3 -p tcp -e 1040 -c 0 -i 14 -a 0 -x {0.0 3.0 2 ------- null}
- -t 0.153586 -s 2 -d 3 -p tcp -e 1040 -c 0 -i 14 -a 0 -x {0.0 3.0 2 ------- null}
h -t 0.153586 -s 2 -d 3 -p tcp -e 1040 -c 0 -i 14 -a 0 -x {0.0 3.0 -1 ------- null}
r -t 0.154422 -s 2 -d 3 -p cbr -e 210 -c 0 -i 11 -a 0 -x {1.0 3.1 9 ------- null}
r -t 0.155336 -s 1 -d 2 -p cbr -e 210 -c 0 -i 16 -a 0 -x {1.0 3.1 12 ------- null}
+ -t 0.155336 -s 2 -d 3 -p cbr -e 210 -c 0 -i 16 -a 0 -x {1.0 3.1 12 ------- null}
- -t 0.155336 -s 2 -d 3 -p cbr -e 210 -c 0 -i 16 -a 0 -x {1.0 3.1 12 ------- null}
h -t 0.155336 -s 2 -d 3 -p cbr -e 210 -c 0 -i 16 -a 0 -x {1.0 3.1 -1 ------- null}
+ -t 0.15625 -s 1 -d 2 -p cbr -e 210 -c 0 -i 19 -a 0 -x {1.0 3.1 15 ------- null}
- -t 0.15625 -s 1 -d 2 -p cbr -e 210 -c 0 -i 19 -a 0 -x {1.0 3.1 15 ------- null}
h -t 0.15625 -s 1 -d 2 -p cbr -e 210 -c 0 -i 19 -a 0 -x {1.0 3.1 -1 ------- null}
r -t 0.158172 -s 2 -d 3 -p cbr -e 210 -c 0 -i 12 -a 0 -x {1.0 3.1 10 ------- null}
r -t 0.159086 -s 1 -d 2 -p cbr -e 210 -c 0 -i 17 -a 0 -x {1.0 3.1 13 ------- null}
+ -t 0.159086 -s 2 -d 3 -p cbr -e 210 -c 0 -i 17 -a 0 -x {1.0 3.1 13 ------- null}
- -t 0.159086 -s 2 -d 3 -p cbr -e 210 -c 0 -i 17 -a 0 -x {1.0 3.1 13 ------- null}
h -t 0.159086 -s 2 -d 3 -p cbr -e 210 -c 0 -i 17 -a 0 -x {1.0 3.1 -1 ------- null}
+ -t 0.16 -s 1 -d 2 -p cbr -e 210 -c 0 -i 20 -a 0 -x {1.0 3.1 16 ------- null}
- -t 0.16 -s 1 -d 2 -p cbr -e 210 -c 0 -i 20 -a 0 -x {1.0 3.1 16 ------- null}
h -t 0.16 -s 1 -d 2 -p cbr -e 210 -c 0 -i 20 -a 0 -x {1.0 3.1 -1 ------- null}
r -t 0.161922 -s 2 -d 3 -p cbr -e 210 -c 0 -i 15 -a 0 -x {1.0 3.1 11 ------- null}
r -t 0.162836 -s 1 -d 2 -p cbr -e 210 -c 0 -i 18 -a 0 -x {1.0 3.1 14 ------- null}
+ -t 0.162836 -s 2 -d 3 -p cbr -e 210 -c 0 -i 18 -a 0 -x {1.0 3.1 14 ------- null}
- -t 0.162836 -s 2 -d 3 -p cbr -e 210 -c 0 -i 18 -a 0 -x {1.0 3.1 14 ------- null}
h -t 0.162836 -s 2 -d 3 -p cbr -e 210 -c 0 -i 18 -a 0 -x {1.0 3.1 -1 ------- null}
r -t 0.163586 -s 2 -d 3 -p tcp -e 1040 -c 0 -i 13 -a 0 -x {0.0 3.0 1 ------- null}
+ -t 0.163586 -s 3 -d 2 -p ack -e 40 -c 0 -i 21 -a 0 -x {3.0 0.0 1 ------- null}
- -t 0.163586 -s 3 -d 2 -p ack -e 40 -c 0 -i 21 -a 0 -x {3.0 0.0 1 ------- null}
h -t 0.163586 -s 3 -d 2 -p ack -e 40 -c 0 -i 21 -a 0 -x {3.0 0.0 -1 ------- null}
+ -t 0.16375 -s 1 -d 2 -p cbr -e 210 -c 0 -i 22 -a 0 -x {1.0 3.1 17 ------- null}
- -t 0.16375 -s 1 -d 2 -p cbr -e 210 -c 0 -i 22 -a 0 -x {1.0 3.1 17 ------- null}
h -t 0.16375 -s 1 -d 2 -p cbr -e 210 -c 0 -i 22 -a 0 -x {1.0 3.1 -1 ------- null}
r -t 0.16525 -s 2 -d 3 -p tcp -e 1040 -c 0 -i 14 -a 0 -x {0.0 3.0 2 ------- null}
+ -t 0.16525 -s 3 -d 2 -p ack -e 40 -c 0 -i 23 -a 0 -x {3.0 0.0 2 ------- null}
- -t 0.16525 -s 3 -d 2 -p ack -e 40 -c 0 -i 23 -a 0 -x {3.0 0.0 2 ------- null}
h -t 0.16525 -s 3 -d 2 -p ack -e 40 -c 0 -i 23 -a 0 -x {3.0 0.0 -1 ------- null}
r -t 0.165672 -s 2 -d 3 -p cbr -e 210 -c 0 -i 16 -a 0 -x {1.0 3.1 12 ------- null}
r -t 0.166586 -s 1 -d 2 -p cbr -e 210 -c 0 -i 19 -a 0 -x {1.0 3.1 15 ------- null}
+ -t 0.166586 -s 2 -d 3 -p cbr -e 210 -c 0 -i 19 -a 0 -x {1.0 3.1 15 ------- null}
- -t 0.166586 -s 2 -d 3 -p cbr -e 210 -c 0 -i 19 -a 0 -x {1.0 3.1 15 ------- null}
h -t 0.166586 -s 2 -d 3 -p cbr -e 210 -c 0 -i 19 -a 0 -x {1.0 3.1 -1 ------- null}
+ -t 0.1675 -s 1 -d 2 -p cbr -e 210 -c 0 -i 24 -a 0 -x {1.0 3.1 18 ------- null}
- -t 0.1675 -s 1 -d 2 -p cbr -e 210 -c 0 -i 24 -a 0 -x {1.0 3.1 18 ------- null}
h -t 0.1675 -s 1 -d 2 -p cbr -e 210 -c 0 -i 24 -a 0 -x {1.0 3.1 -1 ------- null}
r -t 0.169422 -s 2 -d 3 -p cbr -e 210 -c 0 -i 17 -a 0 -x {1.0 3.1 13 ------- null}
r -t 0.170336 -s 1 -d 2 -p cbr -e 210 -c 0 -i 20 -a 0 -x {1.0 3.1 16 ------- null}
+ -t 0.170336 -s 2 -d 3 -p cbr -e 210 -c 0 -i 20 -a 0 -x {1.0 3.1 16 ------- null}
- -t 0.170336 -s 2 -d 3 -p cbr -e 210 -c 0 -i 20 -a 0 -x {1.0 3.1 16 ------- null}
h -t 0.170336 -s 2 -d 3 -p cbr -e 210 -c 0 -i 20 -a 0 -x {1.0 3.1 -1 ------- null}
+ -t 0.17125 -s 1 -d 2 -p cbr -e 210 -c 0 -i 25 -a 0 -x {1.0 3.1 19 ------- null}
- -t 0.17125 -s 1 -d 2 -p cbr -e 210 -c 0 -i 25 -a 0 -x {1.0 3.1 19 ------- null}
h -t 0.17125 -s 1 -d 2 -p cbr -e 210 -c 0 -i 25 -a 0 -x {1.0 3.1 -1 ------- null}
r -t 0.173172 -s 2 -d 3 -p cbr -e 210 -c 0 -i 18 -a 0 -x {1.0 3.1 14 ------- null}
r -t 0.17365 -s 3 -d 2 -p ack -e 40 -c 0 -i 21 -a 0 -x {3.0 0.0 1 ------- null}
+ -t 0.17365 -s 2 -d 0 -p ack -e 40 -c 0 -i 21 -a 0 -x {3.0 0.0 1 ------- null}
- -t 0.17365 -s 2 -d 0 -p ack -e 40 -c 0 -i 21 -a 0 -x {3.0 0.0 1 ------- null}
h -t 0.17365 -s 2 -d 0 -p ack -e 40 -c 0 -i 21 -a 0 -x {3.0 0.0 -1 ------- null}
r -t 0.174086 -s 1 -d 2 -p cbr -e 210 -c 0 -i 22 -a 0 -x {1.0 3.1 17 ------- null}
+ -t 0.174086 -s 2 -d 3 -p cbr -e 210 -c 0 -i 22 -a 0 -x {1.0 3.1 17 ------- null}
- -t 0.174086 -s 2 -d 3 -p cbr -e 210 -c 0 -i 22 -a 0 -x {1.0 3.1 17 ------- null}
h -t 0.174086 -s 2 -d 3 -p cbr -e 210 -c 0 -i 22 -a 0 -x {1.0 3.1 -1 ------- null}
+ -t 0.175 -s 1 -d 2 -p cbr -e 210 -c 0 -i 26 -a 0 -x {1.0 3.1 20 ------- null}
- -t 0.175 -s 1 -d 2 -p cbr -e 210 -c 0 -i 26 -a 0 -x {1.0 3.1 20 ------- null}
h -t 0.175 -s 1 -d 2 -p cbr -e 210 -c 0 -i 26 -a 0 -x {1.0 3.1 -1 ------- null}
r -t 0.175314 -s 3 -d 2 -p ack -e 40 -c 0 -i 23 -a 0 -x {3.0 0.0 2 ------- null}
+ -t 0.175314 -s 2 -d 0 -p ack -e 40 -c 0 -i 23 -a 0 -x {3.0 0.0 2 ------- null}
- -t 0.175314 -s 2 -d 0 -p ack -e 40 -c 0 -i 23 -a 0 -x {3.0 0.0 2 ------- null}
h -t 0.175314 -s 2 -d 0 -p ack -e 40 -c 0 -i 23 -a 0 -x {3.0 0.0 -1 ------- null}
r -t 0.176922 -s 2 -d 3 -p cbr -e 210 -c 0 -i 19 -a 0 -x {1.0 3.1 15 ------- null}
r -t 0.177836 -s 1 -d 2 -p cbr -e 210 -c 0 -i 24 -a 0 -x {1.0 3.1 18 ------- null}
+ -t 0.177836 -s 2 -d 3 -p cbr -e 210 -c 0 -i 24 -a 0 -x {1.0 3.1 18 ------- null}
- -t 0.177836 -s 2 -d 3 -p cbr -e 210 -c 0 -i 24 -a 0 -x {1.0 3.1 18 ------- null}
h -t 0.177836 -s 2 -d 3 -p cbr -e 210 -c 0 -i 24 -a 0 -x {1.0 3.1 -1 ------- null}
+ -t 0.17875 -s 1 -d 2 -p cbr -e 210 -c 0 -i 27 -a 0 -x {1.0 3.1 21 ------- null}
- -t 0.17875 -s 1 -d 2 -p cbr -e 210 -c 0 -i 27 -a 0 -x {1.0 3.1 21 ------- null}
h -t 0.17875 -s 1 -d 2 -p cbr -e 210 -c 0 -i 27 -a 0 -x {1.0 3.1 -1 ------- null}
r -t 0.180672 -s 2 -d 3 -p cbr -e 210 -c 0 -i 20 -a 0 -x {1.0 3.1 16 ------- null}
r -t 0.181586 -s 1 -d 2 -p cbr -e 210 -c 0 -i 25 -a 0 -x {1.0 3.1 19 ------- null}
+ -t 0.181586 -s 2 -d 3 -p cbr -e 210 -c 0 -i 25 -a 0 -x {1.0 3.1 19 ------- null}
- -t 0.181586 -s 2 -d 3 -p cbr -e 210 -c 0 -i 25 -a 0 -x {1.0 3.1 19 ------- null}
h -t 0.181586 -s 2 -d 3 -p cbr -e 210 -c 0 -i 25 -a 0 -x {1.0 3.1 -1 ------- null}
+ -t 0.1825 -s 1 -d 2 -p cbr -e 210 -c 0 -i 28 -a 0 -x {1.0 3.1 22 ------- null}
- -t 0.1825 -s 1 -d 2 -p cbr -e 210 -c 0 -i 28 -a 0 -x {1.0 3.1 22 ------- null}
h -t 0.1825 -s 1 -d 2 -p cbr -e 210 -c 0 -i 28 -a 0 -x {1.0 3.1 -1 ------- null}
r -t 0.183714 -s 2 -d 0 -p ack -e 40 -c 0 -i 21 -a 0 -x {3.0 0.0 1 ------- null}
+ -t 0.183714 -s 0 -d 2 -p tcp -e 1040 -c 0 -i 29 -a 0 -x {0.0 3.0 3 ------- null}
- -t 0.183714 -s 0 -d 2 -p tcp -e 1040 -c 0 -i 29 -a 0 -x {0.0 3.0 3 ------- null}
h -t 0.183714 -s 0 -d 2 -p tcp -e 1040 -c 0 -i 29 -a 0 -x {0.0 3.0 -1 ------- null}
+ -t 0.183714 -s 0 -d 2 -p tcp -e 1040 -c 0 -i 30 -a 0 -x {0.0 3.0 4 ------- null}
r -t 0.184422 -s 2 -d 3 -p cbr -e 210 -c 0 -i 22 -a 0 -x {1.0 3.1 17 ------- null}
r -t 0.185336 -s 1 -d 2 -p cbr -e 210 -c 0 -i 26 -a 0 -x {1.0 3.1 20 ------- null}
+ -t 0.185336 -s 2 -d 3 -p cbr -e 210 -c 0 -i 26 -a 0 -x {1.0 3.1 20 ------- null}
- -t 0.185336 -s 2 -d 3 -p cbr -e 210 -c 0 -i 26 -a 0 -x {1.0 3.1 20 ------- null}
h -t 0.185336 -s 2 -d 3 -p cbr -e 210 -c 0 -i 26 -a 0 -x {1.0 3.1 -1 ------- null}
r -t 0.185378 -s 2 -d 0 -p ack -e 40 -c 0 -i 23 -a 0 -x {3.0 0.0 2 ------- null}
+ -t 0.185378 -s 0 -d 2 -p tcp -e 1040 -c 0 -i 31 -a 0 -x {0.0 3.0 5 ------- null}
+ -t 0.185378 -s 0 -d 2 -p tcp -e 1040 -c 0 -i 32 -a 0 -x {0.0 3.0 6 ------- null}
d -t 0.185378 -s 0 -d 2 -p tcp -e 1040 -c 0 -i 32 -a 0 -x {0.0 3.0 6 ------- null}
- -t 0.185378 -s 0 -d 2 -p tcp -e 1040 -c 0 -i 30 -a 0 -x {0.0 3.0 4 ------- null}
h -t 0.185378 -s 0 -d 2 -p tcp -e 1040 -c 0 -i 30 -a 0 -x {0.0 3.0 -1 ------- null}
+ -t 0.18625 -s 1 -d 2 -p cbr -e 210 -c 0 -i 33 -a 0 -x {1.0 3.1 23 ------- null}
- -t 0.18625 -s 1 -d 2 -p cbr -e 210 -c 0 -i 33 -a 0 -x {1.0 3.1 23 ------- null}
h -t 0.18625 -s 1 -d 2 -p cbr -e 210 -c 0 -i 33 -a 0 -x {1.0 3.1 -1 ------- null}
- -t 0.187042 -s 0 -d 2 -p tcp -e 1040 -c 0 -i 31 -a 0 -x {0.0 3.0 5 ------- null}
h -t 0.187042 -s 0 -d 2 -p tcp -e 1040 -c 0 -i 31 -a 0 -x {0.0 3.0 -1 ------- null}
r -t 0.188172 -s 2 -d 3 -p cbr -e 210 -c 0 -i 24 -a 0 -x {1.0 3.1 18 ------- null}
r -t 0.189086 -s 1 -d 2 -p cbr -e 210 -c 0 -i 27 -a 0 -x {1.0 3.1 21 ------- null}
+ -t 0.189086 -s 2 -d 3 -p cbr -e 210 -c 0 -i 27 -a 0 -x {1.0 3.1 21 ------- null}
- -t 0.189086 -s 2 -d 3 -p cbr -e 210 -c 0 -i 27 -a 0 -x {1.0 3.1 21 ------- null}
h -t 0.189086 -s 2 -d 3 -p cbr -e 210 -c 0 -i 27 -a 0 -x {1.0 3.1 -1 ------- null}
+ -t 0.19 -s 1 -d 2 -p cbr -e 210 -c 0 -i 34 -a 0 -x {1.0 3.1 24 ------- null}
- -t 0.19 -s 1 -d 2 -p cbr -e 210 -c 0 -i 34 -a 0 -x {1.0 3.1 24 ------- null}
h -t 0.19 -s 1 -d 2 -p cbr -e 210 -c 0 -i 34 -a 0 -x {1.0 3.1 -1 ------- null}
r -t 0.191922 -s 2 -d 3 -p cbr -e 210 -c 0 -i 25 -a 0 -x {1.0 3.1 19 ------- null}
r -t 0.192836 -s 1 -d 2 -p cbr -e 210 -c 0 -i 28 -a 0 -x {1.0 3.1 22 ------- null}
+ -t 0.192836 -s 2 -d 3 -p cbr -e 210 -c 0 -i 28 -a 0 -x {1.0 3.1 22 ------- null}
- -t 0.192836 -s 2 -d 3 -p cbr -e 210 -c 0 -i 28 -a 0 -x {1.0 3.1 22 ------- null}
h -t 0.192836 -s 2 -d 3 -p cbr -e 210 -c 0 -i 28 -a 0 -x {1.0 3.1 -1 ------- null}
+ -t 0.19375 -s 1 -d 2 -p cbr -e 210 -c 0 -i 35 -a 0 -x {1.0 3.1 25 ------- null}
- -t 0.19375 -s 1 -d 2 -p cbr -e 210 -c 0 -i 35 -a 0 -x {1.0 3.1 25 ------- null}
h -t 0.19375 -s 1 -d 2 -p cbr -e 210 -c 0 -i 35 -a 0 -x {1.0 3.1 -1 ------- null}
r -t 0.195378 -s 0 -d 2 -p tcp -e 1040 -c 0 -i 29 -a 0 -x {0.0 3.0 3 ------- null}
+ -t 0.195378 -s 2 -d 3 -p tcp -e 1040 -c 0 -i 29 -a 0 -x {0.0 3.0 3 ------- null}
- -t 0.195378 -s 2 -d 3 -p tcp -e 1040 -c 0 -i 29 -a 0 -x {0.0 3.0 3 ------- null}
h -t 0.195378 -s 2 -d 3 -p tcp -e 1040 -c 0 -i 29 -a 0 -x {0.0 3.0 -1 ------- null}
r -t 0.195672 -s 2 -d 3 -p cbr -e 210 -c 0 -i 26 -a 0 -x {1.0 3.1 20 ------- null}
r -t 0.196586 -s 1 -d 2 -p cbr -e 210 -c 0 -i 33 -a 0 -x {1.0 3.1 23 ------- null}
+ -t 0.196586 -s 2 -d 3 -p cbr -e 210 -c 0 -i 33 -a 0 -x {1.0 3.1 23 ------- null}
r -t 0.197042 -s 0 -d 2 -p tcp -e 1040 -c 0 -i 30 -a 0 -x {0.0 3.0 4 ------- null}
+ -t 0.197042 -s 2 -d 3 -p tcp -e 1040 -c 0 -i 30 -a 0 -x {0.0 3.0 4 ------- null}
- -t 0.197042 -s 2 -d 3 -p cbr -e 210 -c 0 -i 33 -a 0 -x {1.0 3.1 23 ------- null}
h -t 0.197042 -s 2 -d 3 -p cbr -e 210 -c 0 -i 33 -a 0 -x {1.0 3.1 -1 ------- null}
- -t 0.197378 -s 2 -d 3 -p tcp -e 1040 -c 0 -i 30 -a 0 -x {0.0 3.0 4 ------- null}
h -t 0.197378 -s 2 -d 3 -p tcp -e 1040 -c 0 -i 30 -a 0 -x {0.0 3.0 -1 ------- null}
+ -t 0.1975 -s 1 -d 2 -p cbr -e 210 -c 0 -i 36 -a 0 -x {1.0 3.1 26 ------- null}
- -t 0.1975 -s 1 -d 2 -p cbr -e 210 -c 0 -i 36 -a 0 -x {1.0 3.1 26 ------- null}
h -t 0.1975 -s 1 -d 2 -p cbr -e 210 -c 0 -i 36 -a 0 -x {1.0 3.1 -1 ------- null}
r -t 0.198706 -s 0 -d 2 -p tcp -e 1040 -c 0 -i 31 -a 0 -x {0.0 3.0 5 ------- null}
+ -t 0.198706 -s 2 -d 3 -p tcp -e 1040 -c 0 -i 31 -a 0 -x {0.0 3.0 5 ------- null}
- -t 0.199042 -s 2 -d 3 -p tcp -e 1040 -c 0 -i 31 -a 0 -x {0.0 3.0 5 ------- null}
h -t 0.199042 -s 2 -d 3 -p tcp -e 1040 -c 0 -i 31 -a 0 -x {0.0 3.0 -1 ------- null}
r -t 0.199422 -s 2 -d 3 -p cbr -e 210 -c 0 -i 27 -a 0 -x {1.0 3.1 21 ------- null}
r -t 0.200336 -s 1 -d 2 -p cbr -e 210 -c 0 -i 34 -a 0 -x {1.0 3.1 24 ------- null}
+ -t 0.200336 -s 2 -d 3 -p cbr -e 210 -c 0 -i 34 -a 0 -x {1.0 3.1 24 ------- null}
- -t 0.200706 -s 2 -d 3 -p cbr -e 210 -c 0 -i 34 -a 0 -x {1.0 3.1 24 ------- null}
h -t 0.200706 -s 2 -d 3 -p cbr -e 210 -c 0 -i 34 -a 0 -x {1.0 3.1 -1 ------- null}
+ -t 0.20125 -s 1 -d 2 -p cbr -e 210 -c 0 -i 37 -a 0 -x {1.0 3.1 27 ------- null}
- -t 0.20125 -s 1 -d 2 -p cbr -e 210 -c 0 -i 37 -a 0 -x {1.0 3.1 27 ------- null}
h -t 0.20125 -s 1 -d 2 -p cbr -e 210 -c 0 -i 37 -a 0 -x {1.0 3.1 -1 ------- null}
r -t 0.203172 -s 2 -d 3 -p cbr -e 210 -c 0 -i 28 -a 0 -x {1.0 3.1 22 ------- null}
r -t 0.204086 -s 1 -d 2 -p cbr -e 210 -c 0 -i 35 -a 0 -x {1.0 3.1 25 ------- null}
+ -t 0.204086 -s 2 -d 3 -p cbr -e 210 -c 0 -i 35 -a 0 -x {1.0 3.1 25 ------- null}
- -t 0.204086 -s 2 -d 3 -p cbr -e 210 -c 0 -i 35 -a 0 -x {1.0 3.1 25 ------- null}
h -t 0.204086 -s 2 -d 3 -p cbr -e 210 -c 0 -i 35 -a 0 -x {1.0 3.1 -1 ------- null}
+ -t 0.205 -s 1 -d 2 -p cbr -e 210 -c 0 -i 38 -a 0 -x {1.0 3.1 28 ------- null}
- -t 0.205 -s 1 -d 2 -p cbr -e 210 -c 0 -i 38 -a 0 -x {1.0 3.1 28 ------- null}
h -t 0.205 -s 1 -d 2 -p cbr -e 210 -c 0 -i 38 -a 0 -x {1.0 3.1 -1 ------- null}
r -t 0.207042 -s 2 -d 3 -p tcp -e 1040 -c 0 -i 29 -a 0 -x {0.0 3.0 3 ------- null}
+ -t 0.207042 -s 3 -d 2 -p ack -e 40 -c 0 -i 39 -a 0 -x {3.0 0.0 3 ------- null}
- -t 0.207042 -s 3 -d 2 -p ack -e 40 -c 0 -i 39 -a 0 -x {3.0 0.0 3 ------- null}
h -t 0.207042 -s 3 -d 2 -p ack -e 40 -c 0 -i 39 -a 0 -x {3.0 0.0 -1 ------- null}
r -t 0.207378 -s 2 -d 3 -p cbr -e 210 -c 0 -i 33 -a 0 -x {1.0 3.1 23 ------- null}
r -t 0.207836 -s 1 -d 2 -p cbr -e 210 -c 0 -i 36 -a 0 -x {1.0 3.1 26 ------- null}
+ -t 0.207836 -s 2 -d 3 -p cbr -e 210 -c 0 -i 36 -a 0 -x {1.0 3.1 26 ------- null}
- -t 0.207836 -s 2 -d 3 -p cbr -e 210 -c 0 -i 36 -a 0 -x {1.0 3.1 26 ------- null}
h -t 0.207836 -s 2 -d 3 -p cbr -e 210 -c 0 -i 36 -a 0 -x {1.0 3.1 -1 ------- null}
+ -t 0.20875 -s 1 -d 2 -p cbr -e 210 -c 0 -i 40 -a 0 -x {1.0 3.1 29 ------- null}
- -t 0.20875 -s 1 -d 2 -p cbr -e 210 -c 0 -i 40 -a 0 -x {1.0 3.1 29 ------- null}
h -t 0.20875 -s 1 -d 2 -p cbr -e 210 -c 0 -i 40 -a 0 -x {1.0 3.1 -1 ------- null}
r -t 0.209042 -s 2 -d 3 -p tcp -e 1040 -c 0 -i 30 -a 0 -x {0.0 3.0 4 ------- null}
+ -t 0.209042 -s 3 -d 2 -p ack -e 40 -c 0 -i 41 -a 0 -x {3.0 0.0 4 ------- null}
- -t 0.209042 -s 3 -d 2 -p ack -e 40 -c 0 -i 41 -a 0 -x {3.0 0.0 4 ------- null}
h -t 0.209042 -s 3 -d 2 -p ack -e 40 -c 0 -i 41 -a 0 -x {3.0 0.0 -1 ------- null}
r -t 0.210706 -s 2 -d 3 -p tcp -e 1040 -c 0 -i 31 -a 0 -x {0.0 3.0 5 ------- null}
+ -t 0.210706 -s 3 -d 2 -p ack -e 40 -c 0 -i 42 -a 0 -x {3.0 0.0 5 ------- null}
- -t 0.210706 -s 3 -d 2 -p ack -e 40 -c 0 -i 42 -a 0 -x {3.0 0.0 5 ------- null}
h -t 0.210706 -s 3 -d 2 -p ack -e 40 -c 0 -i 42 -a 0 -x {3.0 0.0 -1 ------- null}
r -t 0.211042 -s 2 -d 3 -p cbr -e 210 -c 0 -i 34 -a 0 -x {1.0 3.1 24 ------- null}
r -t 0.211586 -s 1 -d 2 -p cbr -e 210 -c 0 -i 37 -a 0 -x {1.0 3.1 27 ------- null}
+ -t 0.211586 -s 2 -d 3 -p cbr -e 210 -c 0 -i 37 -a 0 -x {1.0 3.1 27 ------- null}
- -t 0.211586 -s 2 -d 3 -p cbr -e 210 -c 0 -i 37 -a 0 -x {1.0 3.1 27 ------- null}
h -t 0.211586 -s 2 -d 3 -p cbr -e 210 -c 0 -i 37 -a 0 -x {1.0 3.1 -1 ------- null}
+ -t 0.2125 -s 1 -d 2 -p cbr -e 210 -c 0 -i 43 -a 0 -x {1.0 3.1 30 ------- null}
- -t 0.2125 -s 1 -d 2 -p cbr -e 210 -c 0 -i 43 -a 0 -x {1.0 3.1 30 ------- null}
h -t 0.2125 -s 1 -d 2 -p cbr -e 210 -c 0 -i 43 -a 0 -x {1.0 3.1 -1 ------- null}
r -t 0.214422 -s 2 -d 3 -p cbr -e 210 -c 0 -i 35 -a 0 -x {1.0 3.1 25 ------- null}
r -t 0.215336 -s 1 -d 2 -p cbr -e 210 -c 0 -i 38 -a 0 -x {1.0 3.1 28 ------- null}
+ -t 0.215336 -s 2 -d 3 -p cbr -e 210 -c 0 -i 38 -a 0 -x {1.0 3.1 28 ------- null}
- -t 0.215336 -s 2 -d 3 -p cbr -e 210 -c 0 -i 38 -a 0 -x {1.0 3.1 28 ------- null}
h -t 0.215336 -s 2 -d 3 -p cbr -e 210 -c 0 -i 38 -a 0 -x {1.0 3.1 -1 ------- null}
+ -t 0.21625 -s 1 -d 2 -p cbr -e 210 -c 0 -i 44 -a 0 -x {1.0 3.1 31 ------- null}
- -t 0.21625 -s 1 -d 2 -p cbr -e 210 -c 0 -i 44 -a 0 -x {1.0 3.1 31 ------- null}
h -t 0.21625 -s 1 -d 2 -p cbr -e 210 -c 0 -i 44 -a 0 -x {1.0 3.1 -1 ------- null}
r -t 0.217106 -s 3 -d 2 -p ack -e 40 -c 0 -i 39 -a 0 -x {3.0 0.0 3 ------- null}
+ -t 0.217106 -s 2 -d 0 -p ack -e 40 -c 0 -i 39 -a 0 -x {3.0 0.0 3 ------- null}
- -t 0.217106 -s 2 -d 0 -p ack -e 40 -c 0 -i 39 -a 0 -x {3.0 0.0 3 ------- null}
h -t 0.217106 -s 2 -d 0 -p ack -e 40 -c 0 -i 39 -a 0 -x {3.0 0.0 -1 ------- null}
r -t 0.218172 -s 2 -d 3 -p cbr -e 210 -c 0 -i 36 -a 0 -x {1.0 3.1 26 ------- null}
r -t 0.219086 -s 1 -d 2 -p cbr -e 210 -c 0 -i 40 -a 0 -x {1.0 3.1 29 ------- null}
+ -t 0.219086 -s 2 -d 3 -p cbr -e 210 -c 0 -i 40 -a 0 -x {1.0 3.1 29 ------- null}
- -t 0.219086 -s 2 -d 3 -p cbr -e 210 -c 0 -i 40 -a 0 -x {1.0 3.1 29 ------- null}
h -t 0.219086 -s 2 -d 3 -p cbr -e 210 -c 0 -i 40 -a 0 -x {1.0 3.1 -1 ------- null}
r -t 0.219106 -s 3 -d 2 -p ack -e 40 -c 0 -i 41 -a 0 -x {3.0 0.0 4 ------- null}
+ -t 0.219106 -s 2 -d 0 -p ack -e 40 -c 0 -i 41 -a 0 -x {3.0 0.0 4 ------- null}
- -t 0.219106 -s 2 -d 0 -p ack -e 40 -c 0 -i 41 -a 0 -x {3.0 0.0 4 ------- null}
h -t 0.219106 -s 2 -d 0 -p ack -e 40 -c 0 -i 41 -a 0 -x {3.0 0.0 -1 ------- null}
+ -t 0.22 -s 1 -d 2 -p cbr -e 210 -c 0 -i 45 -a 0 -x {1.0 3.1 32 ------- null}
- -t 0.22 -s 1 -d 2 -p cbr -e 210 -c 0 -i 45 -a 0 -x {1.0 3.1 32 ------- null}
h -t 0.22 -s 1 -d 2 -p cbr -e 210 -c 0 -i 45 -a 0 -x {1.0 3.1 -1 ------- null}
r -t 0.22077 -s 3 -d 2 -p ack -e 40 -c 0 -i 42 -a 0 -x {3.0 0.0 5 ------- null}
+ -t 0.22077 -s 2 -d 0 -p ack -e 40 -c 0 -i 42 -a 0 -x {3.0 0.0 5 ------- null}
- -t 0.22077 -s 2 -d 0 -p ack -e 40 -c 0 -i 42 -a 0 -x {3.0 0.0 5 ------- null}
h -t 0.22077 -s 2 -d 0 -p ack -e 40 -c 0 -i 42 -a 0 -x {3.0 0.0 -1 ------- null}
r -t 0.221922 -s 2 -d 3 -p cbr -e 210 -c 0 -i 37 -a 0 -x {1.0 3.1 27 ------- null}
r -t 0.222836 -s 1 -d 2 -p cbr -e 210 -c 0 -i 43 -a 0 -x {1.0 3.1 30 ------- null}
+ -t 0.222836 -s 2 -d 3 -p cbr -e 210 -c 0 -i 43 -a 0 -x {1.0 3.1 30 ------- null}
- -t 0.222836 -s 2 -d 3 -p cbr -e 210 -c 0 -i 43 -a 0 -x {1.0 3.1 30 ------- null}
h -t 0.222836 -s 2 -d 3 -p cbr -e 210 -c 0 -i 43 -a 0 -x {1.0 3.1 -1 ------- null}
+ -t 0.22375 -s 1 -d 2 -p cbr -e 210 -c 0 -i 46 -a 0 -x {1.0 3.1 33 ------- null}
- -t 0.22375 -s 1 -d 2 -p cbr -e 210 -c 0 -i 46 -a 0 -x {1.0 3.1 33 ------- null}
h -t 0.22375 -s 1 -d 2 -p cbr -e 210 -c 0 -i 46 -a 0 -x {1.0 3.1 -1 ------- null}
r -t 0.225672 -s 2 -d 3 -p cbr -e 210 -c 0 -i 38 -a 0 -x {1.0 3.1 28 ------- null}
r -t 0.226586 -s 1 -d 2 -p cbr -e 210 -c 0 -i 44 -a 0 -x {1.0 3.1 31 ------- null}
+ -t 0.226586 -s 2 -d 3 -p cbr -e 210 -c 0 -i 44 -a 0 -x {1.0 3.1 31 ------- null}
- -t 0.226586 -s 2 -d 3 -p cbr -e 210 -c 0 -i 44 -a 0 -x {1.0 3.1 31 ------- null}
h -t 0.226586 -s 2 -d 3 -p cbr -e 210 -c 0 -i 44 -a 0 -x {1.0 3.1 -1 ------- null}
r -t 0.22717 -s 2 -d 0 -p ack -e 40 -c 0 -i 39 -a 0 -x {3.0 0.0 3 ------- null}
+ -t 0.22717 -s 0 -d 2 -p tcp -e 1040 -c 0 -i 47 -a 0 -x {0.0 3.0 7 ------- null}
- -t 0.22717 -s 0 -d 2 -p tcp -e 1040 -c 0 -i 47 -a 0 -x {0.0 3.0 7 ------- null}
h -t 0.22717 -s 0 -d 2 -p tcp -e 1040 -c 0 -i 47 -a 0 -x {0.0 3.0 -1 ------- null}
+ -t 0.22717 -s 0 -d 2 -p tcp -e 1040 -c 0 -i 48 -a 0 -x {0.0 3.0 8 ------- null}
+ -t 0.2275 -s 1 -d 2 -p cbr -e 210 -c 0 -i 49 -a 0 -x {1.0 3.1 34 ------- null}
- -t 0.2275 -s 1 -d 2 -p cbr -e 210 -c 0 -i 49 -a 0 -x {1.0 3.1 34 ------- null}