V -t * -v 1.0a5 -a 0
A -t * -n 1 -p 0 -o 0x7fffffff -c 30 -a 1
A -t * -h 1 -m 1073741823 -s 0
c -t * -i 1 -n Red
c -t * -i 2 -n Blue
n -t * -a 4 -s 4 -S UP -v circle -c black -i black
n -t * -a 0 -s 0 -S UP -v circle -c black -i black
n -t * -a 5 -s 5 -S UP -v circle -c black -i black
n -t * -a 1 -s 1 -S UP -v circle -c black -i black
n -t * -a 2 -s 2 -S UP -v circle -c black -i black
n -t * -a 3 -s 3 -S UP -v circle -c black -i black
l -t * -s 0 -d 1 -S UP -r 1000000 -D 0.01 -c black
l -t * -s 1 -d 2 -S UP -r 1000000 -D 0.01 -c black
l -t * -s 2 -d 3 -S UP -r 1000000 -D 0.01 -c black
l -t * -s 3 -d 4 -S UP -r 1000000 -D 0.01 -c black
l -t * -s 4 -d 5 -S UP -r 1000000 -D 0.01 -c black
l -t * -s 2 -d 4 -S UP -r 1000000 -D 0.01 -c black
l -t * -s 1 -d 4 -S UP -r 1000000 -D 0.01 -c black
l -t * -s 1 -d 5 -S UP -r 1000000 -D 0.01 -c black
l -t * -s 0 -d 5 -S UP -r 1000000 -D 0.01 -c black
+ -t 0.000169788487334637 -s 0 -d 1 -p rtProtoDV -e 6 -c 0 -i 0 -a 0 -x {0.2 1.2 -1 ------- null}
- -t 0.000169788487334637 -s 0 -d 1 -p rtProtoDV -e 6 -c 0 -i 0 -a 0 -x {0.2 1.2 -1 ------- null}
h -t 0.000169788487334637 -s 0 -d 1 -p rtProtoDV -e 6 -c 0 -i 0 -a 0 -x {0.2 1.2 -1 ------- null}
+ -t 0.000169788487334637 -s 0 -d 5 -p rtProtoDV -e 6 -c 0 -i 1 -a 0 -x {0.2 5.1 -1 ------- null}
- -t 0.000169788487334637 -s 0 -d 5 -p rtProtoDV -e 6 -c 0 -i 1 -a 0 -x {0.2 5.1 -1 ------- null}
h -t 0.000169788487334637 -s 0 -d 5 -p rtProtoDV -e 6 -c 0 -i 1 -a 0 -x {0.2 5.1 -1 ------- null}
+ -t 0.00710233021858257 -s 2 -d 1 -p rtProtoDV -e 6 -c 0 -i 2 -a 0 -x {2.1 1.2 -1 ------- null}
- -t 0.00710233021858257 -s 2 -d 1 -p rtProtoDV -e 6 -c 0 -i 2 -a 0 -x {2.1 1.2 -1 ------- null}
h -t 0.00710233021858257 -s 2 -d 1 -p rtProtoDV -e 6 -c 0 -i 2 -a 0 -x {2.1 1.2 -1 ------- null}
+ -t 0.00710233021858257 -s 2 -d 3 -p rtProtoDV -e 6 -c 0 -i 3 -a 0 -x {2.1 3.3 -1 ------- null}
- -t 0.00710233021858257 -s 2 -d 3 -p rtProtoDV -e 6 -c 0 -i 3 -a 0 -x {2.1 3.3 -1 ------- null}
h -t 0.00710233021858257 -s 2 -d 3 -p rtProtoDV -e 6 -c 0 -i 3 -a 0 -x {2.1 3.3 -1 ------- null}
+ -t 0.00710233021858257 -s 2 -d 4 -p rtProtoDV -e 6 -c 0 -i 4 -a 0 -x {2.1 4.1 -1 ------- null}
- -t 0.00710233021858257 -s 2 -d 4 -p rtProtoDV -e 6 -c 0 -i 4 -a 0 -x {2.1 4.1 -1 ------- null}
h -t 0.00710233021858257 -s 2 -d 4 -p rtProtoDV -e 6 -c 0 -i 4 -a 0 -x {2.1 4.1 -1 ------- null}
r -t 0.0102177884873346 -s 0 -d 1 -p rtProtoDV -e 6 -c 0 -i 0 -a 0 -x {0.2 1.2 -1 ------- null}
r -t 0.0102177884873346 -s 0 -d 5 -p rtProtoDV -e 6 -c 0 -i 1 -a 0 -x {0.2 5.1 -1 ------- null}
r -t 0.0171503302185826 -s 2 -d 1 -p rtProtoDV -e 6 -c 0 -i 2 -a 0 -x {2.1 1.2 -1 ------- null}
+ -t 0.0171503302185826 -s 1 -d 0 -p rtProtoDV -e 6 -c 0 -i 5 -a 0 -x {1.2 0.2 -1 ------- null}
- -t 0.0171503302185826 -s 1 -d 0 -p rtProtoDV -e 6 -c 0 -i 5 -a 0 -x {1.2 0.2 -1 ------- null}
h -t 0.0171503302185826 -s 1 -d 0 -p rtProtoDV -e 6 -c 0 -i 5 -a 0 -x {1.2 0.2 -1 ------- null}
+ -t 0.0171503302185826 -s 1 -d 2 -p rtProtoDV -e 6 -c 0 -i 6 -a 0 -x {1.2 2.1 -1 ------- null}
- -t 0.0171503302185826 -s 1 -d 2 -p rtProtoDV -e 6 -c 0 -i 6 -a 0 -x {1.2 2.1 -1 ------- null}
h -t 0.0171503302185826 -s 1 -d 2 -p rtProtoDV -e 6 -c 0 -i 6 -a 0 -x {1.2 2.1 -1 ------- null}
+ -t 0.0171503302185826 -s 1 -d 4 -p rtProtoDV -e 6 -c 0 -i 7 -a 0 -x {1.2 4.1 -1 ------- null}
- -t 0.0171503302185826 -s 1 -d 4 -p rtProtoDV -e 6 -c 0 -i 7 -a 0 -x {1.2 4.1 -1 ------- null}
h -t 0.0171503302185826 -s 1 -d 4 -p rtProtoDV -e 6 -c 0 -i 7 -a 0 -x {1.2 4.1 -1 ------- null}
+ -t 0.0171503302185826 -s 1 -d 5 -p rtProtoDV -e 6 -c 0 -i 8 -a 0 -x {1.2 5.1 -1 ------- null}
- -t 0.0171503302185826 -s 1 -d 5 -p rtProtoDV -e 6 -c 0 -i 8 -a 0 -x {1.2 5.1 -1 ------- null}
h -t 0.0171503302185826 -s 1 -d 5 -p rtProtoDV -e 6 -c 0 -i 8 -a 0 -x {1.2 5.1 -1 ------- null}
r -t 0.0171503302185826 -s 2 -d 3 -p rtProtoDV -e 6 -c 0 -i 3 -a 0 -x {2.1 3.3 -1 ------- null}
+ -t 0.0171503302185826 -s 3 -d 2 -p rtProtoDV -e 6 -c 0 -i 9 -a 0 -x {3.3 2.1 -1 ------- null}
- -t 0.0171503302185826 -s 3 -d 2 -p rtProtoDV -e 6 -c 0 -i 9 -a 0 -x {3.3 2.1 -1 ------- null}
h -t 0.0171503302185826 -s 3 -d 2 -p rtProtoDV -e 6 -c 0 -i 9 -a 0 -x {3.3 2.1 -1 ------- null}
+ -t 0.0171503302185826 -s 3 -d 4 -p rtProtoDV -e 6 -c 0 -i 10 -a 0 -x {3.3 4.1 -1 ------- null}
- -t 0.0171503302185826 -s 3 -d 4 -p rtProtoDV -e 6 -c 0 -i 10 -a 0 -x {3.3 4.1 -1 ------- null}
h -t 0.0171503302185826 -s 3 -d 4 -p rtProtoDV -e 6 -c 0 -i 10 -a 0 -x {3.3 4.1 -1 ------- null}
r -t 0.0171503302185826 -s 2 -d 4 -p rtProtoDV -e 6 -c 0 -i 4 -a 0 -x {2.1 4.1 -1 ------- null}
r -t 0.0271983302185826 -s 1 -d 0 -p rtProtoDV -e 6 -c 0 -i 5 -a 0 -x {1.2 0.2 -1 ------- null}
+ -t 0.0271983302185826 -s 0 -d 1 -p rtProtoDV -e 6 -c 0 -i 11 -a 0 -x {0.2 1.2 -1 ------- null}
- -t 0.0271983302185826 -s 0 -d 1 -p rtProtoDV -e 6 -c 0 -i 11 -a 0 -x {0.2 1.2 -1 ------- null}
h -t 0.0271983302185826 -s 0 -d 1 -p rtProtoDV -e 6 -c 0 -i 11 -a 0 -x {0.2 1.2 -1 ------- null}
+ -t 0.0271983302185826 -s 0 -d 5 -p rtProtoDV -e 6 -c 0 -i 12 -a 0 -x {0.2 5.1 -1 ------- null}
- -t 0.0271983302185826 -s 0 -d 5 -p rtProtoDV -e 6 -c 0 -i 12 -a 0 -x {0.2 5.1 -1 ------- null}
h -t 0.0271983302185826 -s 0 -d 5 -p rtProtoDV -e 6 -c 0 -i 12 -a 0 -x {0.2 5.1 -1 ------- null}
r -t 0.0271983302185826 -s 1 -d 2 -p rtProtoDV -e 6 -c 0 -i 6 -a 0 -x {1.2 2.1 -1 ------- null}
+ -t 0.0271983302185826 -s 2 -d 1 -p rtProtoDV -e 6 -c 0 -i 13 -a 0 -x {2.1 1.2 -1 ------- null}
- -t 0.0271983302185826 -s 2 -d 1 -p rtProtoDV -e 6 -c 0 -i 13 -a 0 -x {2.1 1.2 -1 ------- null}
h -t 0.0271983302185826 -s 2 -d 1 -p rtProtoDV -e 6 -c 0 -i 13 -a 0 -x {2.1 1.2 -1 ------- null}
+ -t 0.0271983302185826 -s 2 -d 3 -p rtProtoDV -e 6 -c 0 -i 14 -a 0 -x {2.1 3.3 -1 ------- null}
- -t 0.0271983302185826 -s 2 -d 3 -p rtProtoDV -e 6 -c 0 -i 14 -a 0 -x {2.1 3.3 -1 ------- null}
h -t 0.0271983302185826 -s 2 -d 3 -p rtProtoDV -e 6 -c 0 -i 14 -a 0 -x {2.1 3.3 -1 ------- null}
+ -t 0.0271983302185826 -s 2 -d 4 -p rtProtoDV -e 6 -c 0 -i 15 -a 0 -x {2.1 4.1 -1 ------- null}
- -t 0.0271983302185826 -s 2 -d 4 -p rtProtoDV -e 6 -c 0 -i 15 -a 0 -x {2.1 4.1 -1 ------- null}
h -t 0.0271983302185826 -s 2 -d 4 -p rtProtoDV -e 6 -c 0 -i 15 -a 0 -x {2.1 4.1 -1 ------- null}
r -t 0.0271983302185826 -s 1 -d 4 -p rtProtoDV -e 6 -c 0 -i 7 -a 0 -x {1.2 4.1 -1 ------- null}
+ -t 0.0271983302185826 -s 4 -d 1 -p rtProtoDV -e 6 -c 0 -i 16 -a 0 -x {4.1 1.2 -1 ------- null}
- -t 0.0271983302185826 -s 4 -d 1 -p rtProtoDV -e 6 -c 0 -i 16 -a 0 -x {4.1 1.2 -1 ------- null}
h -t 0.0271983302185826 -s 4 -d 1 -p rtProtoDV -e 6 -c 0 -i 16 -a 0 -x {4.1 1.2 -1 ------- null}
+ -t 0.0271983302185826 -s 4 -d 2 -p rtProtoDV -e 6 -c 0 -i 17 -a 0 -x {4.1 2.1 -1 ------- null}
- -t 0.0271983302185826 -s 4 -d 2 -p rtProtoDV -e 6 -c 0 -i 17 -a 0 -x {4.1 2.1 -1 ------- null}
h -t 0.0271983302185826 -s 4 -d 2 -p rtProtoDV -e 6 -c 0 -i 17 -a 0 -x {4.1 2.1 -1 ------- null}
+ -t 0.0271983302185826 -s 4 -d 3 -p rtProtoDV -e 6 -c 0 -i 18 -a 0 -x {4.1 3.3 -1 ------- null}
- -t 0.0271983302185826 -s 4 -d 3 -p rtProtoDV -e 6 -c 0 -i 18 -a 0 -x {4.1 3.3 -1 ------- null}
h -t 0.0271983302185826 -s 4 -d 3 -p rtProtoDV -e 6 -c 0 -i 18 -a 0 -x {4.1 3.3 -1 ------- null}
+ -t 0.0271983302185826 -s 4 -d 5 -p rtProtoDV -e 6 -c 0 -i 19 -a 0 -x {4.1 5.1 -1 ------- null}
- -t 0.0271983302185826 -s 4 -d 5 -p rtProtoDV -e 6 -c 0 -i 19 -a 0 -x {4.1 5.1 -1 ------- null}
h -t 0.0271983302185826 -s 4 -d 5 -p rtProtoDV -e 6 -c 0 -i 19 -a 0 -x {4.1 5.1 -1 ------- null}
r -t 0.0271983302185826 -s 1 -d 5 -p rtProtoDV -e 6 -c 0 -i 8 -a 0 -x {1.2 5.1 -1 ------- null}
+ -t 0.0271983302185826 -s 5 -d 0 -p rtProtoDV -e 6 -c 0 -i 20 -a 0 -x {5.1 0.2 -1 ------- null}
- -t 0.0271983302185826 -s 5 -d 0 -p rtProtoDV -e 6 -c 0 -i 20 -a 0 -x {5.1 0.2 -1 ------- null}
h -t 0.0271983302185826 -s 5 -d 0 -p rtProtoDV -e 6 -c 0 -i 20 -a 0 -x {5.1 0.2 -1 ------- null}
+ -t 0.0271983302185826 -s 5 -d 1 -p rtProtoDV -e 6 -c 0 -i 21 -a 0 -x {5.1 1.2 -1 ------- null}
- -t 0.0271983302185826 -s 5 -d 1 -p rtProtoDV -e 6 -c 0 -i 21 -a 0 -x {5.1 1.2 -1 ------- null}
h -t 0.0271983302185826 -s 5 -d 1 -p rtProtoDV -e 6 -c 0 -i 21 -a 0 -x {5.1 1.2 -1 ------- null}
+ -t 0.0271983302185826 -s 5 -d 4 -p rtProtoDV -e 6 -c 0 -i 22 -a 0 -x {5.1 4.1 -1 ------- null}
- -t 0.0271983302185826 -s 5 -d 4 -p rtProtoDV -e 6 -c 0 -i 22 -a 0 -x {5.1 4.1 -1 ------- null}
h -t 0.0271983302185826 -s 5 -d 4 -p rtProtoDV -e 6 -c 0 -i 22 -a 0 -x {5.1 4.1 -1 ------- null}
r -t 0.0271983302185826 -s 3 -d 2 -p rtProtoDV -e 6 -c 0 -i 9 -a 0 -x {3.3 2.1 -1 ------- null}
r -t 0.0271983302185826 -s 3 -d 4 -p rtProtoDV -e 6 -c 0 -i 10 -a 0 -x {3.3 4.1 -1 ------- null}
r -t 0.0372463302185826 -s 0 -d 1 -p rtProtoDV -e 6 -c 0 -i 11 -a 0 -x {0.2 1.2 -1 ------- null}
r -t 0.0372463302185826 -s 0 -d 5 -p rtProtoDV -e 6 -c 0 -i 12 -a 0 -x {0.2 5.1 -1 ------- null}
r -t 0.0372463302185826 -s 2 -d 1 -p rtProtoDV -e 6 -c 0 -i 13 -a 0 -x {2.1 1.2 -1 ------- null}
r -t 0.0372463302185826 -s 2 -d 3 -p rtProtoDV -e 6 -c 0 -i 14 -a 0 -x {2.1 3.3 -1 ------- null}
+ -t 0.0372463302185826 -s 3 -d 2 -p rtProtoDV -e 6 -c 0 -i 23 -a 0 -x {3.3 2.1 -1 ------- null}
- -t 0.0372463302185826 -s 3 -d 2 -p rtProtoDV -e 6 -c 0 -i 23 -a 0 -x {3.3 2.1 -1 ------- null}
h -t 0.0372463302185826 -s 3 -d 2 -p rtProtoDV -e 6 -c 0 -i 23 -a 0 -x {3.3 2.1 -1 ------- null}
+ -t 0.0372463302185826 -s 3 -d 4 -p rtProtoDV -e 6 -c 0 -i 24 -a 0 -x {3.3 4.1 -1 ------- null}
- -t 0.0372463302185826 -s 3 -d 4 -p rtProtoDV -e 6 -c 0 -i 24 -a 0 -x {3.3 4.1 -1 ------- null}
h -t 0.0372463302185826 -s 3 -d 4 -p rtProtoDV -e 6 -c 0 -i 24 -a 0 -x {3.3 4.1 -1 ------- null}
r -t 0.0372463302185826 -s 2 -d 4 -p rtProtoDV -e 6 -c 0 -i 15 -a 0 -x {2.1 4.1 -1 ------- null}
r -t 0.0372463302185826 -s 4 -d 1 -p rtProtoDV -e 6 -c 0 -i 16 -a 0 -x {4.1 1.2 -1 ------- null}
r -t 0.0372463302185826 -s 4 -d 2 -p rtProtoDV -e 6 -c 0 -i 17 -a 0 -x {4.1 2.1 -1 ------- null}
r -t 0.0372463302185826 -s 4 -d 3 -p rtProtoDV -e 6 -c 0 -i 18 -a 0 -x {4.1 3.3 -1 ------- null}
+ -t 0.0372463302185826 -s 3 -d 2 -p rtProtoDV -e 6 -c 0 -i 25 -a 0 -x {3.3 2.1 -1 ------- null}
+ -t 0.0372463302185826 -s 3 -d 4 -p rtProtoDV -e 6 -c 0 -i 26 -a 0 -x {3.3 4.1 -1 ------- null}
r -t 0.0372463302185826 -s 4 -d 5 -p rtProtoDV -e 6 -c 0 -i 19 -a 0 -x {4.1 5.1 -1 ------- null}
r -t 0.0372463302185826 -s 5 -d 0 -p rtProtoDV -e 6 -c 0 -i 20 -a 0 -x {5.1 0.2 -1 ------- null}
+ -t 0.0372463302185826 -s 0 -d 1 -p rtProtoDV -e 6 -c 0 -i 27 -a 0 -x {0.2 1.2 -1 ------- null}
- -t 0.0372463302185826 -s 0 -d 1 -p rtProtoDV -e 6 -c 0 -i 27 -a 0 -x {0.2 1.2 -1 ------- null}
h -t 0.0372463302185826 -s 0 -d 1 -p rtProtoDV -e 6 -c 0 -i 27 -a 0 -x {0.2 1.2 -1 ------- null}
+ -t 0.0372463302185826 -s 0 -d 5 -p rtProtoDV -e 6 -c 0 -i 28 -a 0 -x {0.2 5.1 -1 ------- null}
- -t 0.0372463302185826 -s 0 -d 5 -p rtProtoDV -e 6 -c 0 -i 28 -a 0 -x {0.2 5.1 -1 ------- null}
h -t 0.0372463302185826 -s 0 -d 5 -p rtProtoDV -e 6 -c 0 -i 28 -a 0 -x {0.2 5.1 -1 ------- null}
r -t 0.0372463302185826 -s 5 -d 1 -p rtProtoDV -e 6 -c 0 -i 21 -a 0 -x {5.1 1.2 -1 ------- null}
r -t 0.0372463302185826 -s 5 -d 4 -p rtProtoDV -e 6 -c 0 -i 22 -a 0 -x {5.1 4.1 -1 ------- null}
- -t 0.0372943302185826 -s 3 -d 2 -p rtProtoDV -e 6 -c 0 -i 25 -a 0 -x {3.3 2.1 -1 ------- null}
h -t 0.0372943302185826 -s 3 -d 2 -p rtProtoDV -e 6 -c 0 -i 25 -a 0 -x {3.3 2.1 -1 ------- null}
- -t 0.0372943302185826 -s 3 -d 4 -p rtProtoDV -e 6 -c 0 -i 26 -a 0 -x {3.3 4.1 -1 ------- null}
h -t 0.0372943302185826 -s 3 -d 4 -p rtProtoDV -e 6 -c 0 -i 26 -a 0 -x {3.3 4.1 -1 ------- null}
+ -t 0.04406133552271 -s 3 -d 2 -p rtProtoDV -e 6 -c 0 -i 29 -a 0 -x {3.3 2.1 -1 ------- null}
- -t 0.04406133552271 -s 3 -d 2 -p rtProtoDV -e 6 -c 0 -i 29 -a 0 -x {3.3 2.1 -1 ------- null}
h -t 0.04406133552271 -s 3 -d 2 -p rtProtoDV -e 6 -c 0 -i 29 -a 0 -x {3.3 2.1 -1 ------- null}
+ -t 0.04406133552271 -s 3 -d 4 -p rtProtoDV -e 6 -c 0 -i 30 -a 0 -x {3.3 4.1 -1 ------- null}
- -t 0.04406133552271 -s 3 -d 4 -p rtProtoDV -e 6 -c 0 -i 30 -a 0 -x {3.3 4.1 -1 ------- null}
h -t 0.04406133552271 -s 3 -d 4 -p rtProtoDV -e 6 -c 0 -i 30 -a 0 -x {3.3 4.1 -1 ------- null}
r -t 0.0472943302185826 -s 3 -d 2 -p rtProtoDV -e 6 -c 0 -i 23 -a 0 -x {3.3 2.1 -1 ------- null}
r -t 0.0472943302185826 -s 3 -d 4 -p rtProtoDV -e 6 -c 0 -i 24 -a 0 -x {3.3 4.1 -1 ------- null}
r -t 0.0472943302185826 -s 0 -d 1 -p rtProtoDV -e 6 -c 0 -i 27 -a 0 -x {0.2 1.2 -1 ------- null}
r -t 0.0472943302185826 -s 0 -d 5 -p rtProtoDV -e 6 -c 0 -i 28 -a 0 -x {0.2 5.1 -1 ------- null}
r -t 0.0473423302185826 -s 3 -d 2 -p rtProtoDV -e 6 -c 0 -i 25 -a 0 -x {3.3 2.1 -1 ------- null}
r -t 0.0473423302185826 -s 3 -d 4 -p rtProtoDV -e 6 -c 0 -i 26 -a 0 -x {3.3 4.1 -1 ------- null}
r -t 0.05410933552271 -s 3 -d 2 -p rtProtoDV -e 6 -c 0 -i 29 -a 0 -x {3.3 2.1 -1 ------- null}
r -t 0.05410933552271 -s 3 -d 4 -p rtProtoDV -e 6 -c 0 -i 30 -a 0 -x {3.3 4.1 -1 ------- null}
+ -t 0.22058669092161 -s 4 -d 1 -p rtProtoDV -e 6 -c 0 -i 31 -a 0 -x {4.1 1.2 -1 ------- null}
- -t 0.22058669092161 -s 4 -d 1 -p rtProtoDV -e 6 -c 0 -i 31 -a 0 -x {4.1 1.2 -1 ------- null}
h -t 0.22058669092161 -s 4 -d 1 -p rtProtoDV -e 6 -c 0 -i 31 -a 0 -x {4.1 1.2 -1 ------- null}
+ -t 0.22058669092161 -s 4 -d 2 -p rtProtoDV -e 6 -c 0 -i 32 -a 0 -x {4.1 2.1 -1 ------- null}
- -t 0.22058669092161 -s 4 -d 2 -p rtProtoDV -e 6 -c 0 -i 32 -a 0 -x {4.1 2.1 -1 ------- null}
h -t 0.22058669092161 -s 4 -d 2 -p rtProtoDV -e 6 -c 0 -i 32 -a 0 -x {4.1 2.1 -1 ------- null}
+ -t 0.22058669092161 -s 4 -d 3 -p rtProtoDV -e 6 -c 0 -i 33 -a 0 -x {4.1 3.3 -1 ------- null}
- -t 0.22058669092161 -s 4 -d 3 -p rtProtoDV -e 6 -c 0 -i 33 -a 0 -x {4.1 3.3 -1 ------- null}
h -t 0.22058669092161 -s 4 -d 3 -p rtProtoDV -e 6 -c 0 -i 33 -a 0 -x {4.1 3.3 -1 ------- null}
+ -t 0.22058669092161 -s 4 -d 5 -p rtProtoDV -e 6 -c 0 -i 34 -a 0 -x {4.1 5.1 -1 ------- null}
- -t 0.22058669092161 -s 4 -d 5 -p rtProtoDV -e 6 -c 0 -i 34 -a 0 -x {4.1 5.1 -1 ------- null}
h -t 0.22058669092161 -s 4 -d 5 -p rtProtoDV -e 6 -c 0 -i 34 -a 0 -x {4.1 5.1 -1 ------- null}
r -t 0.23063469092161 -s 4 -d 1 -p rtProtoDV -e 6 -c 0 -i 31 -a 0 -x {4.1 1.2 -1 ------- null}
r -t 0.23063469092161 -s 4 -d 2 -p rtProtoDV -e 6 -c 0 -i 32 -a 0 -x {4.1 2.1 -1 ------- null}
r -t 0.23063469092161 -s 4 -d 3 -p rtProtoDV -e 6 -c 0 -i 33 -a 0 -x {4.1 3.3 -1 ------- null}
r -t 0.23063469092161 -s 4 -d 5 -p rtProtoDV -e 6 -c 0 -i 34 -a 0 -x {4.1 5.1 -1 ------- null}
+ -t 0.277940357931862 -s 1 -d 0 -p rtProtoDV -e 6 -c 0 -i 35 -a 0 -x {1.2 0.2 -1 ------- null}
- -t 0.277940357931862 -s 1 -d 0 -p rtProtoDV -e 6 -c 0 -i 35 -a 0 -x {1.2 0.2 -1 ------- null}
h -t 0.277940357931862 -s 1 -d 0 -p rtProtoDV -e 6 -c 0 -i 35 -a 0 -x {1.2 0.2 -1 ------- null}
+ -t 0.277940357931862 -s 1 -d 2 -p rtProtoDV -e 6 -c 0 -i 36 -a 0 -x {1.2 2.1 -1 ------- null}
- -t 0.277940357931862 -s 1 -d 2 -p rtProtoDV -e 6 -c 0 -i 36 -a 0 -x {1.2 2.1 -1 ------- null}
h -t 0.277940357931862 -s 1 -d 2 -p rtProtoDV -e 6 -c 0 -i 36 -a 0 -x {1.2 2.1 -1 ------- null}
+ -t 0.277940357931862 -s 1 -d 4 -p rtProtoDV -e 6 -c 0 -i 37 -a 0 -x {1.2 4.1 -1 ------- null}
- -t 0.277940357931862 -s 1 -d 4 -p rtProtoDV -e 6 -c 0 -i 37 -a 0 -x {1.2 4.1 -1 ------- null}
h -t 0.277940357931862 -s 1 -d 4 -p rtProtoDV -e 6 -c 0 -i 37 -a 0 -x {1.2 4.1 -1 ------- null}
+ -t 0.277940357931862 -s 1 -d 5 -p rtProtoDV -e 6 -c 0 -i 38 -a 0 -x {1.2 5.1 -1 ------- null}
- -t 0.277940357931862 -s 1 -d 5 -p rtProtoDV -e 6 -c 0 -i 38 -a 0 -x {1.2 5.1 -1 ------- null}
h -t 0.277940357931862 -s 1 -d 5 -p rtProtoDV -e 6 -c 0 -i 38 -a 0 -x {1.2 5.1 -1 ------- null}
r -t 0.287988357931862 -s 1 -d 0 -p rtProtoDV -e 6 -c 0 -i 35 -a 0 -x {1.2 0.2 -1 ------- null}
r -t 0.287988357931862 -s 1 -d 2 -p rtProtoDV -e 6 -c 0 -i 36 -a 0 -x {1.2 2.1 -1 ------- null}
r -t 0.287988357931862 -s 1 -d 4 -p rtProtoDV -e 6 -c 0 -i 37 -a 0 -x {1.2 4.1 -1 ------- null}
r -t 0.287988357931862 -s 1 -d 5 -p rtProtoDV -e 6 -c 0 -i 38 -a 0 -x {1.2 5.1 -1 ------- null}
+ -t 0.399577726796073 -s 5 -d 0 -p rtProtoDV -e 6 -c 0 -i 39 -a 0 -x {5.1 0.2 -1 ------- null}
- -t 0.399577726796073 -s 5 -d 0 -p rtProtoDV -e 6 -c 0 -i 39 -a 0 -x {5.1 0.2 -1 ------- null}
h -t 0.399577726796073 -s 5 -d 0 -p rtProtoDV -e 6 -c 0 -i 39 -a 0 -x {5.1 0.2 -1 ------- null}
+ -t 0.399577726796073 -s 5 -d 1 -p rtProtoDV -e 6 -c 0 -i 40 -a 0 -x {5.1 1.2 -1 ------- null}
- -t 0.399577726796073 -s 5 -d 1 -p rtProtoDV -e 6 -c 0 -i 40 -a 0 -x {5.1 1.2 -1 ------- null}
h -t 0.399577726796073 -s 5 -d 1 -p rtProtoDV -e 6 -c 0 -i 40 -a 0 -x {5.1 1.2 -1 ------- null}
+ -t 0.399577726796073 -s 5 -d 4 -p rtProtoDV -e 6 -c 0 -i 41 -a 0 -x {5.1 4.1 -1 ------- null}
- -t 0.399577726796073 -s 5 -d 4 -p rtProtoDV -e 6 -c 0 -i 41 -a 0 -x {5.1 4.1 -1 ------- null}
h -t 0.399577726796073 -s 5 -d 4 -p rtProtoDV -e 6 -c 0 -i 41 -a 0 -x {5.1 4.1 -1 ------- null}
r -t 0.409625726796073 -s 5 -d 0 -p rtProtoDV -e 6 -c 0 -i 39 -a 0 -x {5.1 0.2 -1 ------- null}
r -t 0.409625726796073 -s 5 -d 1 -p rtProtoDV -e 6 -c 0 -i 40 -a 0 -x {5.1 1.2 -1 ------- null}
r -t 0.409625726796073 -s 5 -d 4 -p rtProtoDV -e 6 -c 0 -i 41 -a 0 -x {5.1 4.1 -1 ------- null}
+ -t 0.5 -s 1 -d 2 -p cbr -e 200 -c 2 -i 42 -a 2 -x {1.0 3.1 0 ------- null}
- -t 0.5 -s 1 -d 2 -p cbr -e 200 -c 2 -i 42 -a 2 -x {1.0 3.1 0 ------- null}
h -t 0.5 -s 1 -d 2 -p cbr -e 200 -c 2 -i 42 -a 2 -x {1.0 3.1 -1 ------- null}
+ -t 0.503571428571429 -s 1 -d 2 -p cbr -e 200 -c 2 -i 43 -a 2 -x {1.0 3.1 1 ------- null}
- -t 0.503571428571429 -s 1 -d 2 -p cbr -e 200 -c 2 -i 43 -a 2 -x {1.0 3.1 1 ------- null}
h -t 0.503571428571429 -s 1 -d 2 -p cbr -e 200 -c 2 -i 43 -a 2 -x {1.0 3.1 -1 ------- null}
+ -t 0.507142857142857 -s 1 -d 2 -p cbr -e 200 -c 2 -i 44 -a 2 -x {1.0 3.1 2 ------- null}
- -t 0.507142857142857 -s 1 -d 2 -p cbr -e 200 -c 2 -i 44 -a 2 -x {1.0 3.1 2 ------- null}
h -t 0.507142857142857 -s 1 -d 2 -p cbr -e 200 -c 2 -i 44 -a 2 -x {1.0 3.1 -1 ------- null}
+ -t 0.510714285714286 -s 1 -d 2 -p cbr -e 200 -c 2 -i 45 -a 2 -x {1.0 3.1 3 ------- null}
- -t 0.510714285714286 -s 1 -d 2 -p cbr -e 200 -c 2 -i 45 -a 2 -x {1.0 3.1 3 ------- null}
h -t 0.510714285714286 -s 1 -d 2 -p cbr -e 200 -c 2 -i 45 -a 2 -x {1.0 3.1 -1 ------- null}
r -t 0.5116 -s 1 -d 2 -p cbr -e 200 -c 2 -i 42 -a 2 -x {1.0 3.1 0 ------- null}
+ -t 0.5116 -s 2 -d 3 -p cbr -e 200 -c 2 -i 42 -a 2 -x {1.0 3.1 0 ------- null}
- -t 0.5116 -s 2 -d 3 -p cbr -e 200 -c 2 -i 42 -a 2 -x {1.0 3.1 0 ------- null}
h -t 0.5116 -s 2 -d 3 -p cbr -e 200 -c 2 -i 42 -a 2 -x {1.0 3.1 -1 ------- null}
+ -t 0.514285714285714 -s 1 -d 2 -p cbr -e 200 -c 2 -i 46 -a 2 -x {1.0 3.1 4 ------- null}
- -t 0.514285714285714 -s 1 -d 2 -p cbr -e 200 -c 2 -i 46 -a 2 -x {1.0 3.1 4 ------- null}
h -t 0.514285714285714 -s 1 -d 2 -p cbr -e 200 -c 2 -i 46 -a 2 -x {1.0 3.1 -1 ------- null}
r -t 0.515171428571429 -s 1 -d 2 -p cbr -e 200 -c 2 -i 43 -a 2 -x {1.0 3.1 1 ------- null}
+ -t 0.515171428571429 -s 2 -d 3 -p cbr -e 200 -c 2 -i 43 -a 2 -x {1.0 3.1 1 ------- null}
- -t 0.515171428571429 -s 2 -d 3 -p cbr -e 200 -c 2 -i 43 -a 2 -x {1.0 3.1 1 ------- null}
h -t 0.515171428571429 -s 2 -d 3 -p cbr -e 200 -c 2 -i 43 -a 2 -x {1.0 3.1 -1 ------- null}
+ -t 0.517857142857143 -s 1 -d 2 -p cbr -e 200 -c 2 -i 47 -a 2 -x {1.0 3.1 5 ------- null}
- -t 0.517857142857143 -s 1 -d 2 -p cbr -e 200 -c 2 -i 47 -a 2 -x {1.0 3.1 5 ------- null}
h -t 0.517857142857143 -s 1 -d 2 -p cbr -e 200 -c 2 -i 47 -a 2 -x {1.0 3.1 -1 ------- null}
r -t 0.518742857142857 -s 1 -d 2 -p cbr -e 200 -c 2 -i 44 -a 2 -x {1.0 3.1 2 ------- null}
+ -t 0.518742857142857 -s 2 -d 3 -p cbr -e 200 -c 2 -i 44 -a 2 -x {1.0 3.1 2 ------- null}
- -t 0.518742857142857 -s 2 -d 3 -p cbr -e 200 -c 2 -i 44 -a 2 -x {1.0 3.1 2 ------- null}
h -t 0.518742857142857 -s 2 -d 3 -p cbr -e 200 -c 2 -i 44 -a 2 -x {1.0 3.1 -1 ------- null}
+ -t 0.521428571428571 -s 1 -d 2 -p cbr -e 200 -c 2 -i 48 -a 2 -x {1.0 3.1 6 ------- null}
- -t 0.521428571428571 -s 1 -d 2 -p cbr -e 200 -c 2 -i 48 -a 2 -x {1.0 3.1 6 ------- null}
h -t 0.521428571428571 -s 1 -d 2 -p cbr -e 200 -c 2 -i 48 -a 2 -x {1.0 3.1 -1 ------- null}
r -t 0.522314285714286 -s 1 -d 2 -p cbr -e 200 -c 2 -i 45 -a 2 -x {1.0 3.1 3 ------- null}
+ -t 0.522314285714286 -s 2 -d 3 -p cbr -e 200 -c 2 -i 45 -a 2 -x {1.0 3.1 3 ------- null}
- -t 0.522314285714286 -s 2 -d 3 -p cbr -e 200 -c 2 -i 45 -a 2 -x {1.0 3.1 3 ------- null}
h -t 0.522314285714286 -s 2 -d 3 -p cbr -e 200 -c 2 -i 45 -a 2 -x {1.0 3.1 -1 ------- null}
r -t 0.5232 -s 2 -d 3 -p cbr -e 200 -c 2 -i 42 -a 2 -x {1.0 3.1 0 ------- null}
+ -t 0.525 -s 1 -d 2 -p cbr -e 200 -c 2 -i 49 -a 2 -x {1.0 3.1 7 ------- null}
- -t 0.525 -s 1 -d 2 -p cbr -e 200 -c 2 -i 49 -a 2 -x {1.0 3.1 7 ------- null}
h -t 0.525 -s 1 -d 2 -p cbr -e 200 -c 2 -i 49 -a 2 -x {1.0 3.1 -1 ------- null}
r -t 0.525885714285714 -s 1 -d 2 -p cbr -e 200 -c 2 -i 46 -a 2 -x {1.0 3.1 4 ------- null}
+ -t 0.525885714285714 -s 2 -d 3 -p cbr -e 200 -c 2 -i 46 -a 2 -x {1.0 3.1 4 ------- null}
- -t 0.525885714285714 -s 2 -d 3 -p cbr -e 200 -c 2 -i 46 -a 2 -x {1.0 3.1 4 ------- null}
h -t 0.525885714285714 -s 2 -d 3 -p cbr -e 200 -c 2 -i 46 -a 2 -x {1.0 3.1 -1 ------- null}
r -t 0.526771428571429 -s 2 -d 3 -p cbr -e 200 -c 2 -i 43 -a 2 -x {1.0 3.1 1 ------- null}
+ -t 0.528571428571428 -s 1 -d 2 -p cbr -e 200 -c 2 -i 50 -a 2 -x {1.0 3.1 8 ------- null}
- -t 0.528571428571428 -s 1 -d 2 -p cbr -e 200 -c 2 -i 50 -a 2 -x {1.0 3.1 8 ------- null}
h -t 0.528571428571428 -s 1 -d 2 -p cbr -e 200 -c 2 -i 50 -a 2 -x {1.0 3.1 -1 ------- null}
r -t 0.529457142857143 -s 1 -d 2 -p cbr -e 200 -c 2 -i 47 -a 2 -x {1.0 3.1 5 ------- null}
+ -t 0.529457142857143 -s 2 -d 3 -p cbr -e 200 -c 2 -i 47 -a 2 -x {1.0 3.1 5 ------- null}
- -t 0.529457142857143 -s 2 -d 3 -p cbr -e 200 -c 2 -i 47 -a 2 -x {1.0 3.1 5 ------- null}
h -t 0.529457142857143 -s 2 -d 3 -p cbr -e 200 -c 2 -i 47 -a 2 -x {1.0 3.1 -1 ------- null}
r -t 0.530342857142857 -s 2 -d 3 -p cbr -e 200 -c 2 -i 44 -a 2 -x {1.0 3.1 2 ------- null}
+ -t 0.532142857142857 -s 1 -d 2 -p cbr -e 200 -c 2 -i 51 -a 2 -x {1.0 3.1 9 ------- null}
- -t 0.532142857142857 -s 1 -d 2 -p cbr -e 200 -c 2 -i 51 -a 2 -x {1.0 3.1 9 ------- null}
h -t 0.532142857142857 -s 1 -d 2 -p cbr -e 200 -c 2 -i 51 -a 2 -x {1.0 3.1 -1 ------- null}
r -t 0.533028571428571 -s 1 -d 2 -p cbr -e 200 -c 2 -i 48 -a 2 -x {1.0 3.1 6 ------- null}
+ -t 0.533028571428571 -s 2 -d 3 -p cbr -e 200 -c 2 -i 48 -a 2 -x {1.0 3.1 6 ------- null}
- -t 0.533028571428571 -s 2 -d 3 -p cbr -e 200 -c 2 -i 48 -a 2 -x {1.0 3.1 6 ------- null}
h -t 0.533028571428571 -s 2 -d 3 -p cbr -e 200 -c 2 -i 48 -a 2 -x {1.0 3.1 -1 ------- null}
r -t 0.533914285714286 -s 2 -d 3 -p cbr -e 200 -c 2 -i 45 -a 2 -x {1.0 3.1 3 ------- null}
+ -t 0.535714285714286 -s 1 -d 2 -p cbr -e 200 -c 2 -i 52 -a 2 -x {1.0 3.1 10 ------- null}
- -t 0.535714285714286 -s 1 -d 2 -p cbr -e 200 -c 2 -i 52 -a 2 -x {1.0 3.1 10 ------- null}
h -t 0.535714285714286 -s 1 -d 2 -p cbr -e 200 -c 2 -i 52 -a 2 -x {1.0 3.1 -1 ------- null}
r -t 0.5366 -s 1 -d 2 -p cbr -e 200 -c 2 -i 49 -a 2 -x {1.0 3.1 7 ------- null}
+ -t 0.5366 -s 2 -d 3 -p cbr -e 200 -c 2 -i 49 -a 2 -x {1.0 3.1 7 ------- null}
- -t 0.5366 -s 2 -d 3 -p cbr -e 200 -c 2 -i 49 -a 2 -x {1.0 3.1 7 ------- null}
h -t 0.5366 -s 2 -d 3 -p cbr -e 200 -c 2 -i 49 -a 2 -x {1.0 3.1 -1 ------- null}
r -t 0.537485714285714 -s 2 -d 3 -p cbr -e 200 -c 2 -i 46 -a 2 -x {1.0 3.1 4 ------- null}
+ -t 0.539285714285714 -s 1 -d 2 -p cbr -e 200 -c 2 -i 53 -a 2 -x {1.0 3.1 11 ------- null}
- -t 0.539285714285714 -s 1 -d 2 -p cbr -e 200 -c 2 -i 53 -a 2 -x {1.0 3.1 11 ------- null}
h -t 0.539285714285714 -s 1 -d 2 -p cbr -e 200 -c 2 -i 53 -a 2 -x {1.0 3.1 -1 ------- null}
r -t 0.540171428571429 -s 1 -d 2 -p cbr -e 200 -c 2 -i 50 -a 2 -x {1.0 3.1 8 ------- null}
+ -t 0.540171428571429 -s 2 -d 3 -p cbr -e 200 -c 2 -i 50 -a 2 -x {1.0 3.1 8 ------- null}
- -t 0.540171428571429 -s 2 -d 3 -p cbr -e 200 -c 2 -i 50 -a 2 -x {1.0 3.1 8 ------- null}
h -t 0.540171428571429 -s 2 -d 3 -p cbr -e 200 -c 2 -i 50 -a 2 -x {1.0 3.1 -1 ------- null}
r -t 0.541057142857143 -s 2 -d 3 -p cbr -e 200 -c 2 -i 47 -a 2 -x {1.0 3.1 5 ------- null}
+ -t 0.542857142857143 -s 1 -d 2 -p cbr -e 200 -c 2 -i 54 -a 2 -x {1.0 3.1 12 ------- null}
- -t 0.542857142857143 -s 1 -d 2 -p cbr -e 200 -c 2 -i 54 -a 2 -x {1.0 3.1 12 ------- null}
h -t 0.542857142857143 -s 1 -d 2 -p cbr -e 200 -c 2 -i 54 -a 2 -x {1.0 3.1 -1 ------- null}
r -t 0.543742857142857 -s 1 -d 2 -p cbr -e 200 -c 2 -i 51 -a 2 -x {1.0 3.1 9 ------- null}
+ -t 0.543742857142857 -s 2 -d 3 -p cbr -e 200 -c 2 -i 51 -a 2 -x {1.0 3.1 9 ------- null}
- -t 0.543742857142857 -s 2 -d 3 -p cbr -e 200 -c 2 -i 51 -a 2 -x {1.0 3.1 9 ------- null}
h -t 0.543742857142857 -s 2 -d 3 -p cbr -e 200 -c 2 -i 51 -a 2 -x {1.0 3.1 -1 ------- null}
r -t 0.544628571428571 -s 2 -d 3 -p cbr -e 200 -c 2 -i 48 -a 2 -x {1.0 3.1 6 ------- null}
+ -t 0.546428571428571 -s 1 -d 2 -p cbr -e 200 -c 2 -i 55 -a 2 -x {1.0 3.1 13 ------- null}
- -t 0.546428571428571 -s 1 -d 2 -p cbr -e 200 -c 2 -i 55 -a 2 -x {1.0 3.1 13 ------- null}
h -t 0.546428571428571 -s 1 -d 2 -p cbr -e 200 -c 2 -i 55 -a 2 -x {1.0 3.1 -1 ------- null}
r -t 0.547314285714286 -s 1 -d 2 -p cbr -e 200 -c 2 -i 52 -a 2 -x {1.0 3.1 10 ------- null}
+ -t 0.547314285714286 -s 2 -d 3 -p cbr -e 200 -c 2 -i 52 -a 2 -x {1.0 3.1 10 ------- null}
- -t 0.547314285714286 -s 2 -d 3 -p cbr -e 200 -c 2 -i 52 -a 2 -x {1.0 3.1 10 ------- null}
h -t 0.547314285714286 -s 2 -d 3 -p cbr -e 200 -c 2 -i 52 -a 2 -x {1.0 3.1 -1 ------- null}
r -t 0.5482 -s 2 -d 3 -p cbr -e 200 -c 2 -i 49 -a 2 -x {1.0 3.1 7 ------- null}
+ -t 0.55 -s 1 -d 2 -p cbr -e 200 -c 2 -i 56 -a 2 -x {1.0 3.1 14 ------- null}
- -t 0.55 -s 1 -d 2 -p cbr -e 200 -c 2 -i 56 -a 2 -x {1.0 3.1 14 ------- null}
h -t 0.55 -s 1 -d 2 -p cbr -e 200 -c 2 -i 56 -a 2 -x {1.0 3.1 -1 ------- null}
r -t 0.550885714285714 -s 1 -d 2 -p cbr -e 200 -c 2 -i 53 -a 2 -x {1.0 3.1 11 ------- null}
+ -t 0.550885714285714 -s 2 -d 3 -p cbr -e 200 -c 2 -i 53 -a 2 -x {1.0 3.1 11 ------- null}
- -t 0.550885714285714 -s 2 -d 3 -p cbr -e 200 -c 2 -i 53 -a 2 -x {1.0 3.1 11 ------- null}
h -t 0.550885714285714 -s 2 -d 3 -p cbr -e 200 -c 2 -i 53 -a 2 -x {1.0 3.1 -1 ------- null}
r -t 0.551771428571429 -s 2 -d 3 -p cbr -e 200 -c 2 -i 50 -a 2 -x {1.0 3.1 8 ------- null}
+ -t 0.553571428571428 -s 1 -d 2 -p cbr -e 200 -c 2 -i 57 -a 2 -x {1.0 3.1 15 ------- null}
- -t 0.553571428571428 -s 1 -d 2 -p cbr -e 200 -c 2 -i 57 -a 2 -x {1.0 3.1 15 ------- null}
h -t 0.553571428571428 -s 1 -d 2 -p cbr -e 200 -c 2 -i 57 -a 2 -x {1.0 3.1 -1 ------- null}
r -t 0.554457142857143 -s 1 -d 2 -p cbr -e 200 -c 2 -i 54 -a 2 -x {1.0 3.1 12 ------- null}
+ -t 0.554457142857143 -s 2 -d 3 -p cbr -e 200 -c 2 -i 54 -a 2 -x {1.0 3.1 12 ------- null}
- -t 0.554457142857143 -s 2 -d 3 -p cbr -e 200 -c 2 -i 54 -a 2 -x {1.0 3.1 12 ------- null}
h -t 0.554457142857143 -s 2 -d 3 -p cbr -e 200 -c 2 -i 54 -a 2 -x {1.0 3.1 -1 ------- null}
r -t 0.555342857142857 -s 2 -d 3 -p cbr -e 200 -c 2 -i 51 -a 2 -x {1.0 3.1 9 ------- null}
+ -t 0.557142857142857 -s 1 -d 2 -p cbr -e 200 -c 2 -i 58 -a 2 -x {1.0 3.1 16 ------- null}
- -t 0.557142857142857 -s 1 -d 2 -p cbr -e 200 -c 2 -i 58 -a 2 -x {1.0 3.1 16 ------- null}
h -t 0.557142857142857 -s 1 -d 2 -p cbr -e 200 -c 2 -i 58 -a 2 -x {1.0 3.1 -1 ------- null}
r -t 0.558028571428571 -s 1 -d 2 -p cbr -e 200 -c 2 -i 55 -a 2 -x {1.0 3.1 13 ------- null}
+ -t 0.558028571428571 -s 2 -d 3 -p cbr -e 200 -c 2 -i 55 -a 2 -x {1.0 3.1 13 ------- null}
- -t 0.558028571428571 -s 2 -d 3 -p cbr -e 200 -c 2 -i 55 -a 2 -x {1.0 3.1 13 ------- null}
h -t 0.558028571428571 -s 2 -d 3 -p cbr -e 200 -c 2 -i 55 -a 2 -x {1.0 3.1 -1 ------- null}
r -t 0.558914285714286 -s 2 -d 3 -p cbr -e 200 -c 2 -i 52 -a 2 -x {1.0 3.1 10 ------- null}
+ -t 0.560714285714285 -s 1 -d 2 -p cbr -e 200 -c 2 -i 59 -a 2 -x {1.0 3.1 17 ------- null}
- -t 0.560714285714285 -s 1 -d 2 -p cbr -e 200 -c 2 -i 59 -a 2 -x {1.0 3.1 17 ------- null}
h -t 0.560714285714285 -s 1 -d 2 -p cbr -e 200 -c 2 -i 59 -a 2 -x {1.0 3.1 -1 ------- null}
r -t 0.5616 -s 1 -d 2 -p cbr -e 200 -c 2 -i 56 -a 2 -x {1.0 3.1 14 ------- null}
+ -t 0.5616 -s 2 -d 3 -p cbr -e 200 -c 2 -i 56 -a 2 -x {1.0 3.1 14 ------- null}
- -t 0.5616 -s 2 -d 3 -p cbr -e 200 -c 2 -i 56 -a 2 -x {1.0 3.1 14 ------- null}
h -t 0.5616 -s 2 -d 3 -p cbr -e 200 -c 2 -i 56 -a 2 -x {1.0 3.1 -1 ------- null}
r -t 0.562485714285714 -s 2 -d 3 -p cbr -e 200 -c 2 -i 53 -a 2 -x {1.0 3.1 11 ------- null}
+ -t 0.564285714285714 -s 1 -d 2 -p cbr -e 200 -c 2 -i 60 -a 2 -x {1.0 3.1 18 ------- null}
- -t 0.564285714285714 -s 1 -d 2 -p cbr -e 200 -c 2 -i 60 -a 2 -x {1.0 3.1 18 ------- null}
h -t 0.564285714285714 -s 1 -d 2 -p cbr -e 200 -c 2 -i 60 -a 2 -x {1.0 3.1 -1 ------- null}
r -t 0.565171428571428 -s 1 -d 2 -p cbr -e 200 -c 2 -i 57 -a 2 -x {1.0 3.1 15 ------- null}
+ -t 0.565171428571428 -s 2 -d 3 -p cbr -e 200 -c 2 -i 57 -a 2 -x {1.0 3.1 15 ------- null}
- -t 0.565171428571428 -s 2 -d 3 -p cbr -e 200 -c 2 -i 57 -a 2 -x {1.0 3.1 15 ------- null}
h -t 0.565171428571428 -s 2 -d 3 -p cbr -e 200 -c 2 -i 57 -a 2 -x {1.0 3.1 -1 ------- null}
r -t 0.566057142857143 -s 2 -d 3 -p cbr -e 200 -c 2 -i 54 -a 2 -x {1.0 3.1 12 ------- null}
+ -t 0.567857142857143 -s 1 -d 2 -p cbr -e 200 -c 2 -i 61 -a 2 -x {1.0 3.1 19 ------- null}
- -t 0.567857142857143 -s 1 -d 2 -p cbr -e 200 -c 2 -i 61 -a 2 -x {1.0 3.1 19 ------- null}
h -t 0.567857142857143 -s 1 -d 2 -p cbr -e 200 -c 2 -i 61 -a 2 -x {1.0 3.1 -1 ------- null}
r -t 0.568742857142857 -s 1 -d 2 -p cbr -e 200 -c 2 -i 58 -a 2 -x {1.0 3.1 16 ------- null}
+ -t 0.568742857142857 -s 2 -d 3 -p cbr -e 200 -c 2 -i 58 -a 2 -x {1.0 3.1 16 ------- null}
- -t 0.568742857142857 -s 2 -d 3 -p cbr -e 200 -c 2 -i 58 -a 2 -x {1.0 3.1 16 ------- null}
h -t 0.568742857142857 -s 2 -d 3 -p cbr -e 200 -c 2 -i 58 -a 2 -x {1.0 3.1 -1 ------- null}
r -t 0.569628571428571 -s 2 -d 3 -p cbr -e 200 -c 2 -i 55 -a 2 -x {1.0 3.1 13 ------- null}
+ -t 0.571428571428571 -s 1 -d 2 -p cbr -e 200 -c 2 -i 62 -a 2 -x {1.0 3.1 20 ------- null}